 Entering Gaussian System, Link 0=g09
 Input=forces.com
 Output=forces.log
 Initial command:
 /nexus/posix0/bmm/home/sucerqdl/sw/g09/l1.exe "/nexus/posix0/bmm/home/sucerqdl/sw/g09/g09_scratch/Gau-3008206.inp" -scrdir="/nexus/posix0/bmm/home/sucerqdl/sw/g09/g09_scratch/"
 Entering Link 1 = /nexus/posix0/bmm/home/sucerqdl/sw/g09/l1.exe PID=   3008208.
  
 Copyright (c) 1988,1990,1992,1993,1995,1998,2003,2009,2013,
            Gaussian, Inc.  All Rights Reserved.
  
 This is part of the Gaussian(R) 09 program.  It is based on
 the Gaussian(R) 03 system (copyright 2003, Gaussian, Inc.),
 the Gaussian(R) 98 system (copyright 1998, Gaussian, Inc.),
 the Gaussian(R) 94 system (copyright 1995, Gaussian, Inc.),
 the Gaussian 92(TM) system (copyright 1992, Gaussian, Inc.),
 the Gaussian 90(TM) system (copyright 1990, Gaussian, Inc.),
 the Gaussian 88(TM) system (copyright 1988, Gaussian, Inc.),
 the Gaussian 86(TM) system (copyright 1986, Carnegie Mellon
 University), and the Gaussian 82(TM) system (copyright 1983,
 Carnegie Mellon University). Gaussian is a federally registered
 trademark of Gaussian, Inc.
  
 This software contains proprietary and confidential information,
 including trade secrets, belonging to Gaussian, Inc.
  
 This software is provided under written license and may be
 used, copied, transmitted, or stored only in accord with that
 written license.
  
 The following legend is applicable only to US Government
 contracts under FAR:
  
                    RESTRICTED RIGHTS LEGEND
  
 Use, reproduction and disclosure by the US Government is
 subject to restrictions as set forth in subparagraphs (a)
 and (c) of the Commercial Computer Software - Restricted
 Rights clause in FAR 52.227-19.
  
 Gaussian, Inc.
 340 Quinnipiac St., Bldg. 40, Wallingford CT 06492
  
  
 ---------------------------------------------------------------
 Warning -- This program may not be used in any manner that
 competes with the business of Gaussian, Inc. or will provide
 assistance to any competitor of Gaussian, Inc.  The licensee
 of this program is prohibited from giving any competitor of
 Gaussian, Inc. access to this program.  By using this program,
 the user acknowledges that Gaussian, Inc. is engaged in the
 business of creating and licensing software in the field of
 computational chemistry and represents and warrants to the
 licensee that it is not a competitor of Gaussian, Inc. and that
 it will not use this program in any manner prohibited above.
 ---------------------------------------------------------------
  

 Cite this work as:
 Gaussian 09, Revision D.01,
 M. J. Frisch, G. W. Trucks, H. B. Schlegel, G. E. Scuseria, 
 M. A. Robb, J. R. Cheeseman, G. Scalmani, V. Barone, B. Mennucci, 
 G. A. Petersson, H. Nakatsuji, M. Caricato, X. Li, H. P. Hratchian, 
 A. F. Izmaylov, J. Bloino, G. Zheng, J. L. Sonnenberg, M. Hada, 
 M. Ehara, K. Toyota, R. Fukuda, J. Hasegawa, M. Ishida, T. Nakajima, 
 Y. Honda, O. Kitao, H. Nakai, T. Vreven, J. A. Montgomery, Jr., 
 J. E. Peralta, F. Ogliaro, M. Bearpark, J. J. Heyd, E. Brothers, 
 K. N. Kudin, V. N. Staroverov, T. Keith, R. Kobayashi, J. Normand, 
 K. Raghavachari, A. Rendell, J. C. Burant, S. S. Iyengar, J. Tomasi, 
 M. Cossi, N. Rega, J. M. Millam, M. Klene, J. E. Knox, J. B. Cross, 
 V. Bakken, C. Adamo, J. Jaramillo, R. Gomperts, R. E. Stratmann, 
 O. Yazyev, A. J. Austin, R. Cammi, C. Pomelli, J. W. Ochterski, 
 R. L. Martin, K. Morokuma, V. G. Zakrzewski, G. A. Voth, 
 P. Salvador, J. J. Dannenberg, S. Dapprich, A. D. Daniels, 
 O. Farkas, J. B. Foresman, J. V. Ortiz, J. Cioslowski, 
 and D. J. Fox, Gaussian, Inc., Wallingford CT, 2013.
 
 ******************************************
 Gaussian 09:  ES64L-G09RevD.01 24-Apr-2013
                 8-Sep-2025 
 ******************************************
 %chk=forces
 %NProcShared=16
 Will use up to   16 processors via shared memory.
 -------------------
 #P bmk/6-31+g force
 -------------------
 1/10=7,30=1,38=1/1,3;
 2/12=2,17=6,18=5,40=1/2;
 3/5=1,6=6,7=10,11=2,16=1,25=1,30=1,71=1,74=-34/1,2,3;
 4//1;
 5/5=2,38=5/2;
 6/7=2,8=2,9=2,10=2,28=1/1;
 7/29=1/1,2,3,16;
 1/10=7,30=1/3;
 99//99;
 Leave Link    1 at Mon Sep  8 11:54:40 2025, MaxMem=           0 cpu:         1.1
 (Enter /nexus/posix0/bmm/home/sucerqdl/sw/g09/l101.exe)
 ------------------------------
 Gaussian input prepared by ASE
 ------------------------------
 Symbolic Z-matrix:
 Charge =  0 Multiplicity = 1
 C
 H                    1    R2
 H                    1    R3       2    A3
 H                    1    R4       2    A4       3    D4       0
 C                    1    R5       2    A5       3    D5       0
 O                    5    R6       1    A6       2    D6       0
 N                    5    R7       1    A7       6    D7       0
 H                    7    R8       5    A8       1    D8       0
 C                    7    R9       5    A9       8    D9       0
 H                    9    R10      7    A10      5    D10      0
 H                    9    R11      7    A11      10   D11      0
 C                    9    R12      7    A12      10   D12      0
 O                    12   R13      9    A13      7    D13      0
 N                    12   R14      9    A14      13   D14      0
 H                    14   R15      12   A15      9    D15      0
 C                    14   R16      12   A16      15   D16      0
 H                    16   R17      14   A17      12   D17      0
 H                    16   R18      14   A18      17   D18      0
 H                    16   R19      14   A19      17   D19      0
       Variables:
  R2                    1.09524                  
  R3                    1.09376                  
  R4                    1.09376                  
  R5                    1.62945                  
  R6                    1.24614                  
  R7                    1.40862                  
  R8                    1.01229                  
  R9                    1.51572                  
  R10                   1.09952                  
  R11                   1.09952                  
  R12                   1.60542                  
  R13                   1.23843                  
  R14                   1.40461                  
  R15                   1.01273                  
  R16                   1.55759                  
  R17                   1.0936                   
  R18                   1.09351                  
  R19                   1.0936                   
  A3                  110.82729                  
  A4                  110.82709                  
  A5                  113.61172                  
  A6                  115.11643                  
  A7                  126.95858                  
  A8                  122.46185                  
  A9                  120.32066                  
  A10                 107.60875                  
  A11                 107.60862                  
  A12                 118.34617                  
  A13                 120.5436                   
  A14                 116.11373                  
  A15                 115.37071                  
  A16                 131.67926                  
  A17                 108.28835                  
  A18                 107.29105                  
  A19                 108.28845                  
  D4                 -122.3722                   
  D5                  118.81387                  
  D6                 -179.99825                  
  D7                  180.                       
  D8                   -0.00029                  
  D9                 -179.99938                  
  D10                  57.28782                  
  D11                -114.57389                  
  D12                 122.71278                  
  D13                  -0.00099                  
  D14                -179.99969                  
  D15                  -0.00067                  
  D16                 180.                       
  D17                -119.3977                   
  D18                 119.39738                  
  D19                -121.2053                   
 
 NAtoms=     19 NQM=       19 NQMF=       0 NMMI=      0 NMMIF=      0
                NMic=       0 NMicF=      0.
                    Isotopes and Nuclear Properties:
 (Nuclear quadrupole moments (NQMom) in fm**2, nuclear magnetic moments (NMagM)
  in nuclear magnetons)

  Atom         1           2           3           4           5           6           7           8           9          10
 IAtWgt=          12           1           1           1          12          16          14           1          12           1
 AtmWgt=  12.0000000   1.0078250   1.0078250   1.0078250  12.0000000  15.9949146  14.0030740   1.0078250  12.0000000   1.0078250
 NucSpn=           0           1           1           1           0           0           2           1           0           1
 AtZEff=   0.0000000   0.0000000   0.0000000   0.0000000   0.0000000   0.0000000   0.0000000   0.0000000   0.0000000   0.0000000
 NQMom=    0.0000000   0.0000000   0.0000000   0.0000000   0.0000000   0.0000000   2.0440000   0.0000000   0.0000000   0.0000000
 NMagM=    0.0000000   2.7928460   2.7928460   2.7928460   0.0000000   0.0000000   0.4037610   2.7928460   0.0000000   2.7928460
 AtZNuc=   6.0000000   1.0000000   1.0000000   1.0000000   6.0000000   8.0000000   7.0000000   1.0000000   6.0000000   1.0000000

  Atom        11          12          13          14          15          16          17          18          19
 IAtWgt=           1          12          16          14           1          12           1           1           1
 AtmWgt=   1.0078250  12.0000000  15.9949146  14.0030740   1.0078250  12.0000000   1.0078250   1.0078250   1.0078250
 NucSpn=           1           0           0           2           1           0           1           1           1
 AtZEff=   0.0000000   0.0000000   0.0000000   0.0000000   0.0000000   0.0000000   0.0000000   0.0000000   0.0000000
 NQMom=    0.0000000   0.0000000   0.0000000   2.0440000   0.0000000   0.0000000   0.0000000   0.0000000   0.0000000
 NMagM=    2.7928460   0.0000000   0.0000000   0.4037610   2.7928460   0.0000000   2.7928460   2.7928460   2.7928460
 AtZNuc=   1.0000000   6.0000000   8.0000000   7.0000000   1.0000000   6.0000000   1.0000000   1.0000000   1.0000000
 Leave Link  101 at Mon Sep  8 11:54:40 2025, MaxMem=    33554432 cpu:         1.5
 (Enter /nexus/posix0/bmm/home/sucerqdl/sw/g09/l103.exe)

 GradGradGradGradGradGradGradGradGradGradGradGradGradGradGradGradGradGrad
 Berny optimization.
 Initialization pass.
                       ----------------------------
                       !    Initial Parameters    !
                       ! (Angstroms and Degrees)  !
 ----------------------                            ----------------------
 !      Name          Value   Derivative information (Atomic Units)     !
 ------------------------------------------------------------------------
 !       R2          1.0952   estimate D2E/DX2                          !
 !       R3          1.0938   estimate D2E/DX2                          !
 !       R4          1.0938   estimate D2E/DX2                          !
 !       R5          1.6294   estimate D2E/DX2                          !
 !       R6          1.2461   estimate D2E/DX2                          !
 !       R7          1.4086   estimate D2E/DX2                          !
 !       R8          1.0123   estimate D2E/DX2                          !
 !       R9          1.5157   estimate D2E/DX2                          !
 !       R10         1.0995   estimate D2E/DX2                          !
 !       R11         1.0995   estimate D2E/DX2                          !
 !       R12         1.6054   estimate D2E/DX2                          !
 !       R13         1.2384   estimate D2E/DX2                          !
 !       R14         1.4046   estimate D2E/DX2                          !
 !       R15         1.0127   estimate D2E/DX2                          !
 !       R16         1.5576   estimate D2E/DX2                          !
 !       R17         1.0936   estimate D2E/DX2                          !
 !       R18         1.0935   estimate D2E/DX2                          !
 !       R19         1.0936   estimate D2E/DX2                          !
 !       A3        110.8273   estimate D2E/DX2                          !
 !       A4        110.8271   estimate D2E/DX2                          !
 !       A5        113.6117   estimate D2E/DX2                          !
 !       A6        115.1164   estimate D2E/DX2                          !
 !       A7        126.9586   estimate D2E/DX2                          !
 !       A8        122.4619   estimate D2E/DX2                          !
 !       A9        120.3207   estimate D2E/DX2                          !
 !       A10       107.6087   estimate D2E/DX2                          !
 !       A11       107.6086   estimate D2E/DX2                          !
 !       A12       118.3462   estimate D2E/DX2                          !
 !       A13       120.5436   estimate D2E/DX2                          !
 !       A14       116.1137   estimate D2E/DX2                          !
 !       A15       115.3707   estimate D2E/DX2                          !
 !       A16       131.6793   estimate D2E/DX2                          !
 !       A17       108.2883   estimate D2E/DX2                          !
 !       A18       107.2911   estimate D2E/DX2                          !
 !       A19       108.2884   estimate D2E/DX2                          !
 !       D4       -122.3722   estimate D2E/DX2                          !
 !       D5        118.8139   estimate D2E/DX2                          !
 !       D6       -179.9983   estimate D2E/DX2                          !
 !       D7        180.0      estimate D2E/DX2                          !
 !       D8         -0.0003   estimate D2E/DX2                          !
 !       D9       -179.9994   estimate D2E/DX2                          !
 !       D10        57.2878   estimate D2E/DX2                          !
 !       D11      -114.5739   estimate D2E/DX2                          !
 !       D12       122.7128   estimate D2E/DX2                          !
 !       D13        -0.001    estimate D2E/DX2                          !
 !       D14      -179.9997   estimate D2E/DX2                          !
 !       D15        -0.0007   estimate D2E/DX2                          !
 !       D16       180.0      estimate D2E/DX2                          !
 !       D17      -119.3977   estimate D2E/DX2                          !
 !       D18       119.3974   estimate D2E/DX2                          !
 !       D19      -121.2053   estimate D2E/DX2                          !
 ------------------------------------------------------------------------
 Trust Radius=3.00D-01 FncErr=1.00D-07 GrdErr=1.00D-07
 Number of steps in this run=      2 maximum allowed number of steps=      2.
 GradGradGradGradGradGradGradGradGradGradGradGradGradGradGradGradGradGrad

 Leave Link  103 at Mon Sep  8 11:54:40 2025, MaxMem=    33554432 cpu:         0.3
 (Enter /nexus/posix0/bmm/home/sucerqdl/sw/g09/l202.exe)
                          Input orientation:                          
 ---------------------------------------------------------------------
 Center     Atomic      Atomic             Coordinates (Angstroms)
 Number     Number       Type             X           Y           Z
 ---------------------------------------------------------------------
      1          6           0        0.000000    0.000000    0.000000
      2          1           0        0.000000    0.000000    1.095236
      3          1           0        1.022287    0.000000   -0.388888
      4          1           0       -0.547351    0.863413   -0.388884
      5          6           0       -0.719589   -1.308178   -0.652653
      6          8           0       -0.735330   -1.336866   -1.898364
      7          7           0       -1.310918   -2.383114    0.039479
      8          1           0       -1.336747   -2.430019    1.050352
      9          6           0       -1.941963   -3.530350   -0.724094
     10          1           0       -1.170312   -3.957123   -1.380871
     11          1           0       -2.715499   -3.107126   -1.380952
     12          6           0       -2.602426   -4.730922    0.112448
     13          8           0       -2.593490   -4.714609    1.350734
     14          7           0       -3.173493   -5.769093   -0.641877
     15          1           0       -3.113045   -5.659252   -1.646821
     16          6           0       -3.895723   -7.082008   -0.216765
     17          1           0       -3.329243   -7.929188   -0.613431
     18          1           0       -3.909098   -7.106284    0.876392
     19          1           0       -4.914533   -7.057136   -0.613460
 ---------------------------------------------------------------------
                    Distance matrix (angstroms):
                    1          2          3          4          5
     1  C    0.000000
     2  H    1.095236   0.000000
     3  H    1.093757   1.802137   0.000000
     4  H    1.093758   1.802135   1.791437   0.000000
     5  C    1.629446   2.298751   2.194319   2.194322   0.000000
     6  O    2.435510   3.359995   2.674874   2.674901   1.246141
     7  N    2.720165   2.917595   3.362525   3.362509   1.408617
     8  H    2.965657   2.773788   3.679871   3.679842   2.130642
     9  C    4.093764   4.420922   4.621960   4.621954   2.537193
    10  H    4.351466   4.812438   4.631452   4.960815   2.783947
    11  H    4.351458   4.812450   4.960793   4.631440   2.783933
    12  C    5.400638   5.488180   5.980929   5.980907   3.980657
    13  O    5.547811   5.386929   6.190934   6.190903   4.373652
    14  N    6.615549   6.809629   7.137997   7.137980   5.091318
    15  H    6.665598   7.016912   7.121131   7.121120   5.064469
    16  C    8.085696   8.188580   8.623879   8.623858   6.604160
    17  H    8.621611   8.767863   9.047555   9.224921   7.116853
    18  H    8.157719   8.113459   8.741783   8.741758   6.791831
    19  H    8.621609   8.767864   9.224936   9.047530   7.116853
                    6          7          8          9         10
     6  O    0.000000
     7  N    2.276219   0.000000
     8  H    3.201814   1.012290   0.000000
     9  C    2.765184   1.515721   2.173861   0.000000
    10  H    2.706059   2.124775   2.875864   1.099517   0.000000
    11  H    2.706031   2.124773   2.875877   1.099517   1.763547
    12  C    4.364519   2.680582   2.788506   1.605424   2.209008
    13  O    5.041681   2.966522   2.624687   2.476261   3.171890
    14  N    5.212296   3.924065   4.169735   2.556442   2.800371
    15  H    4.939618   4.101750   4.567047   2.599054   2.596571
    16  C    6.769233   5.369030   5.458475   4.085197   4.306729
    17  H    7.199871   5.937918   6.081042   4.613737   4.585547
    18  H    7.145506   5.455209   5.339916   4.383889   4.744829
    19  H    7.199875   5.937916   6.081039   4.613744   4.921198
                   11         12         13         14         15
    11  H    0.000000
    12  C    2.209014   0.000000
    13  O    3.171907   1.238426   0.000000
    14  N    2.800368   1.404607   2.327840   0.000000
    15  H    2.596551   2.053668   3.185534   1.012735   0.000000
    16  C    4.306733   2.703443   3.123691   1.557589   2.163765
    17  H    4.921184   3.359176   3.838333   2.165890   2.503447
    18  H    4.744844   2.816620   2.770548   2.152751   3.015660
    19  H    4.585562   3.359174   3.838324   2.165891   2.503452
                   16         17         18         19
    16  C    0.000000
    17  H    1.093598   0.000000
    18  H    1.093509   1.798048   0.000000
    19  H    1.093598   1.809314   1.798047   0.000000
 Stoichiometry    C5H10N2O2
 Framework group  C1[X(C5H10N2O2)]
 Deg. of freedom    51
 Full point group                 C1      NOp   1
 Largest Abelian subgroup         C1      NOp   1
 Largest concise Abelian subgroup C1      NOp   1
                         Standard orientation:                         
 ---------------------------------------------------------------------
 Center     Atomic      Atomic             Coordinates (Angstroms)
 Number     Number       Type             X           Y           Z
 ---------------------------------------------------------------------
      1          6           0       -3.903522    0.624570    0.000004
      2          1           0       -3.812562    1.716022   -0.000026
      3          1           0       -4.426839    0.277921   -0.895696
      4          1           0       -4.426811    0.277973    0.895741
      5          6           0       -2.469853   -0.149825    0.000001
      6          8           0       -2.540700   -1.393951    0.000001
      7          7           0       -1.189761    0.438024   -0.000001
      8          1           0       -1.052446    1.440958   -0.000006
      9          6           0        0.051639   -0.431652   -0.000012
     10          1           0       -0.000903   -1.086352   -0.881797
     11          1           0       -0.000912   -1.086382    0.881750
     12          6           0        1.486631    0.288199    0.000000
     13          8           0        1.570935    1.523753   -0.000001
     14          7           0        2.604760   -0.561923    0.000005
     15          1           0        2.396357   -1.552983    0.000011
     16          6           0        4.133343   -0.262728    0.000003
     17          1           0        4.568030   -0.697021   -0.904649
     18          1           0        4.251751    0.824352   -0.000009
     19          1           0        4.568030   -0.696998    0.904665
 ---------------------------------------------------------------------
 Rotational constants (GHZ):      5.0293720      0.5797772      0.5250716
 Leave Link  202 at Mon Sep  8 11:54:40 2025, MaxMem=    33554432 cpu:         0.1
 (Enter /nexus/posix0/bmm/home/sucerqdl/sw/g09/l301.exe)
 Standard basis: 6-31+G (6D, 7F)
 Ernie: Thresh=  0.10000D-02 Tol=  0.10000D-05 Strict=F.
 There are   137 symmetry adapted cartesian basis functions of A   symmetry.
 There are   137 symmetry adapted basis functions of A   symmetry.
   137 basis functions,   274 primitive gaussians,   137 cartesian basis functions
    35 alpha electrons       35 beta electrons
       nuclear repulsion energy       428.0000240554 Hartrees.
 IExCor= 3226 DFT=T Ex+Corr=BMK ExCW=0 ScaHFX=  0.420000
 ScaDFX=  1.000000  1.000000  1.000000  1.000000 ScalE2=  1.000000  1.000000
 IRadAn=      0 IRanWt=     -1 IRanGd=            0 ICorTp=0 IEmpDi=  4
 NAtoms=   19 NActive=   19 NUniq=   19 SFac= 1.00D+00 NAtFMM=   60 NAOKFM=F Big=F
 Integral buffers will be    131072 words long.
 Raffenetti 2 integral format.
 Two-electron integral symmetry is turned on.
 Leave Link  301 at Mon Sep  8 11:54:40 2025, MaxMem=    33554432 cpu:         0.7
 (Enter /nexus/posix0/bmm/home/sucerqdl/sw/g09/l302.exe)
 NPDir=0 NMtPBC=     1 NCelOv=     1 NCel=       1 NClECP=     1 NCelD=      1
         NCelK=      1 NCelE2=     1 NClLst=     1 CellRange=     0.0.
 One-electron integrals computed using PRISM.
 PrsmSu:  requested number of processors reduced to:   9 ShMem   1 Linda.
 NBasis=   137 RedAO= T EigKep=  2.63D-05  NBF=   137
 NBsUse=   137 1.00D-06 EigRej= -1.00D+00 NBFU=   137
 Precomputing XC quadrature grid using
 IXCGrd= 4 IRadAn=           0 IRanWt=          -1 IRanGd=           0 AccXCQ= 0.00D+00.
 Generated NRdTot=       0 NPtTot=           0 NUsed=           0 NTot=          32
 NSgBfM=   137   137   137   137   137 MxSgAt=    19 MxSgA2=    19.
 Leave Link  302 at Mon Sep  8 11:54:41 2025, MaxMem=    33554432 cpu:         2.0
 (Enter /nexus/posix0/bmm/home/sucerqdl/sw/g09/l303.exe)
 DipDrv:  MaxL=1.
 Leave Link  303 at Mon Sep  8 11:54:41 2025, MaxMem=    33554432 cpu:         0.5
 (Enter /nexus/posix0/bmm/home/sucerqdl/sw/g09/l401.exe)
 ExpMin= 4.38D-02 ExpMax= 5.48D+03 ExpMxC= 8.25D+02 IAcc=2 IRadAn=         4 AccDes= 0.00D+00
 Harris functional with IExCor= 1009 and IRadAn=       4 diagonalized for initial guess.
 HarFok:  IExCor= 1009 AccDes= 0.00D+00 IRadAn=         4 IDoV= 1 UseB2=F ITyADJ=14
 ICtDFT=  3500011 ScaDFX=  1.000000  1.000000  1.000000  1.000000
 FoFCou: FMM=F IPFlag=           0 FMFlag=      100000 FMFlg1=           0
         NFxFlg=           0 DoJE=T BraDBF=F KetDBF=T FulRan=T
         wScrn=  0.000000 ICntrl=     500 IOpCl=  0 I1Cent=   200000004 NGrid=           0
         NMat0=    1 NMatS0=      1 NMatT0=    0 NMatD0=    1 NMtDS0=    0 NMtDT0=    0
 Petite list used in FoFCou.
 Harris En= -455.976738357335    
 JPrj=0 DoOrth=F DoCkMO=F.
 Leave Link  401 at Mon Sep  8 11:54:41 2025, MaxMem=    33554432 cpu:         3.1
 (Enter /nexus/posix0/bmm/home/sucerqdl/sw/g09/l502.exe)
 Closed shell SCF:
 Using DIIS extrapolation, IDIIS=  1040.
 Integral symmetry usage will be decided dynamically.
 IVT=       78102 IEndB=       78102 NGot=    33554432 MDV=    33511877
 LenX=    33511877 LenY=    33492667
 Requested convergence on RMS density matrix=1.00D-08 within 128 cycles.
 Requested convergence on MAX density matrix=1.00D-06.
 Requested convergence on             energy=1.00D-06.
 No special actions if energy rises.
 Fock matrices will be formed incrementally for  20 cycles.

 Cycle   1  Pass 1  IDiag  1:
 FoFJK:  IHMeth= 1 ICntrl=       0 DoSepK=F KAlg= 0 I1Cent=   0 FoldK=F
 IRaf= 890000000 NMat=   1 IRICut=       1 DoRegI=T DoRafI=F ISym2E= 0.
 FoFCou: FMM=F IPFlag=           0 FMFlag=      100000 FMFlg1=           0
         NFxFlg=           0 DoJE=F BraDBF=F KetDBF=F FulRan=T
         wScrn=  0.000000 ICntrl=       0 IOpCl=  0 I1Cent=           0 NGrid=           0
         NMat0=    1 NMatS0=      1 NMatT0=    0 NMatD0=    1 NMtDS0=    0 NMtDT0=    0
 Symmetry not used in FoFCou.
 E= -455.886085414628    
 DIIS: error= 3.75D-02 at cycle   1 NSaved=   1.
 NSaved= 1 IEnMin= 1 EnMin= -455.886085414628     IErMin= 1 ErrMin= 3.75D-02
 ErrMax= 3.75D-02  0.00D+00 EMaxC= 1.00D-01 BMatC= 2.68D-01 BMatP= 2.68D-01
 IDIUse=3 WtCom= 6.25D-01 WtEn= 3.75D-01
 Coeff-Com:  0.100D+01
 Coeff-En:   0.100D+01
 Coeff:      0.100D+01
 Gap=     0.329 Goal=   None    Shift=    0.000
 GapD=    0.329 DampG=1.000 DampE=0.500 DampFc=0.5000 IDamp=-1.
 Damping current iteration by 5.00D-01
 RMSDP=3.19D-02 MaxDP=1.76D+00              OVMax= 2.86D-01

 Cycle   2  Pass 1  IDiag  1:
 RMSU=  1.29D-02    CP:  1.20D+00
 E= -455.948845325624     Delta-E=       -0.062759910995 Rises=F Damp=T
 DIIS: error= 1.91D-02 at cycle   2 NSaved=   2.
 NSaved= 2 IEnMin= 2 EnMin= -455.948845325624     IErMin= 2 ErrMin= 1.91D-02
 ErrMax= 1.91D-02  0.00D+00 EMaxC= 1.00D-01 BMatC= 4.29D-02 BMatP= 2.68D-01
 IDIUse=3 WtCom= 8.09D-01 WtEn= 1.91D-01
 Coeff-Com:  0.235D+00 0.765D+00
 Coeff-En:   0.351D+00 0.649D+00
 Coeff:      0.257D+00 0.743D+00
 Gap=     0.324 Goal=   None    Shift=    0.000
 RMSDP=1.44D-02 MaxDP=9.11D-01 DE=-6.28D-02 OVMax= 1.44D-01

 Cycle   3  Pass 1  IDiag  1:
 RMSU=  5.36D-03    CP:  9.89D-01  3.11D-01
 E= -456.107779595183     Delta-E=       -0.158934269559 Rises=F Damp=F
 DIIS: error= 1.38D-02 at cycle   3 NSaved=   3.
 NSaved= 3 IEnMin= 3 EnMin= -456.107779595183     IErMin= 3 ErrMin= 1.38D-02
 ErrMax= 1.38D-02  0.00D+00 EMaxC= 1.00D-01 BMatC= 1.76D-02 BMatP= 4.29D-02
 IDIUse=3 WtCom= 8.62D-01 WtEn= 1.38D-01
 Coeff-Com:  0.854D-01 0.392D+00 0.523D+00
 Coeff-En:   0.000D+00 0.000D+00 0.100D+01
 Coeff:      0.736D-01 0.338D+00 0.589D+00
 Gap=     0.331 Goal=   None    Shift=    0.000
 RMSDP=1.91D-03 MaxDP=5.97D-02 DE=-1.59D-01 OVMax= 4.29D-02

 Cycle   4  Pass 1  IDiag  1:
 RMSU=  1.46D-03    CP:  1.01D+00  3.83D-01  9.85D-01
 E= -456.122346811400     Delta-E=       -0.014567216218 Rises=F Damp=F
 DIIS: error= 4.97D-03 at cycle   4 NSaved=   4.
 NSaved= 4 IEnMin= 4 EnMin= -456.122346811400     IErMin= 4 ErrMin= 4.97D-03
 ErrMax= 4.97D-03  0.00D+00 EMaxC= 1.00D-01 BMatC= 2.42D-03 BMatP= 1.76D-02
 IDIUse=3 WtCom= 9.50D-01 WtEn= 4.97D-02
 Coeff-Com:  0.179D-01 0.321D-01 0.270D+00 0.680D+00
 Coeff-En:   0.000D+00 0.000D+00 0.642D-01 0.936D+00
 Coeff:      0.170D-01 0.305D-01 0.260D+00 0.692D+00
 Gap=     0.331 Goal=   None    Shift=    0.000
 RMSDP=7.59D-04 MaxDP=3.28D-02 DE=-1.46D-02 OVMax= 1.21D-02

 Cycle   5  Pass 1  IDiag  1:
 RMSU=  3.03D-04    CP:  9.97D-01  3.45D-01  1.00D+00  8.15D-01
 E= -456.124213634995     Delta-E=       -0.001866823595 Rises=F Damp=F
 DIIS: error= 1.32D-03 at cycle   5 NSaved=   5.
 NSaved= 5 IEnMin= 5 EnMin= -456.124213634995     IErMin= 5 ErrMin= 1.32D-03
 ErrMax= 1.32D-03  0.00D+00 EMaxC= 1.00D-01 BMatC= 1.62D-04 BMatP= 2.42D-03
 IDIUse=3 WtCom= 9.87D-01 WtEn= 1.32D-02
 Coeff-Com:  0.394D-02-0.165D-01 0.923D-01 0.355D+00 0.566D+00
 Coeff-En:   0.000D+00 0.000D+00 0.000D+00 0.000D+00 0.100D+01
 Coeff:      0.389D-02-0.163D-01 0.910D-01 0.350D+00 0.571D+00
 Gap=     0.329 Goal=   None    Shift=    0.000
 RMSDP=2.70D-04 MaxDP=1.69D-02 DE=-1.87D-03 OVMax= 3.63D-03

 Cycle   6  Pass 1  IDiag  1:
 RMSU=  1.05D-04    CP:  9.93D-01  3.35D-01  1.02D+00  8.37D-01  7.86D-01
 E= -456.124362532735     Delta-E=       -0.000148897740 Rises=F Damp=F
 DIIS: error= 2.92D-04 at cycle   6 NSaved=   6.
 NSaved= 6 IEnMin= 6 EnMin= -456.124362532735     IErMin= 6 ErrMin= 2.92D-04
 ErrMax= 2.92D-04  0.00D+00 EMaxC= 1.00D-01 BMatC= 7.57D-06 BMatP= 1.62D-04
 IDIUse=3 WtCom= 9.97D-01 WtEn= 2.92D-03
 Coeff-Com:  0.179D-02-0.895D-02 0.220D-01 0.852D-01 0.211D+00 0.689D+00
 Coeff-En:   0.000D+00 0.000D+00 0.000D+00 0.000D+00 0.000D+00 0.100D+01
 Coeff:      0.179D-02-0.892D-02 0.220D-01 0.850D-01 0.210D+00 0.690D+00
 Gap=     0.328 Goal=   None    Shift=    0.000
 RMSDP=9.91D-05 MaxDP=5.62D-03 DE=-1.49D-04 OVMax= 4.70D-04

 Cycle   7  Pass 1  IDiag  1:
 RMSU=  3.51D-05    CP:  9.92D-01  3.30D-01  1.02D+00  8.38D-01  8.29D-01
                    CP:  1.04D+00
 E= -456.124368739147     Delta-E=       -0.000006206412 Rises=F Damp=F
 DIIS: error= 7.29D-05 at cycle   7 NSaved=   7.
 NSaved= 7 IEnMin= 7 EnMin= -456.124368739147     IErMin= 7 ErrMin= 7.29D-05
 ErrMax= 7.29D-05  0.00D+00 EMaxC= 1.00D-01 BMatC= 9.96D-07 BMatP= 7.57D-06
 IDIUse=1 WtCom= 1.00D+00 WtEn= 0.00D+00
 Coeff-Com:  0.594D-03-0.172D-02-0.463D-02-0.236D-01 0.215D-02 0.266D+00
 Coeff-Com:  0.761D+00
 Coeff:      0.594D-03-0.172D-02-0.463D-02-0.236D-01 0.215D-02 0.266D+00
 Coeff:      0.761D+00
 Gap=     0.328 Goal=   None    Shift=    0.000
 RMSDP=2.74D-05 MaxDP=7.74D-04 DE=-6.21D-06 OVMax= 3.57D-04

 Cycle   8  Pass 1  IDiag  1:
 RMSU=  1.57D-05    CP:  9.92D-01  3.29D-01  1.02D+00  8.38D-01  8.58D-01
                    CP:  1.04D+00  1.01D+00
 E= -456.124369566524     Delta-E=       -0.000000827377 Rises=F Damp=F
 DIIS: error= 4.52D-05 at cycle   8 NSaved=   8.
 NSaved= 8 IEnMin= 8 EnMin= -456.124369566524     IErMin= 8 ErrMin= 4.52D-05
 ErrMax= 4.52D-05  0.00D+00 EMaxC= 1.00D-01 BMatC= 2.15D-07 BMatP= 9.96D-07
 IDIUse=1 WtCom= 1.00D+00 WtEn= 0.00D+00
 Coeff-Com:  0.224D-03-0.240D-03-0.479D-02-0.227D-01-0.188D-01 0.855D-01
 Coeff-Com:  0.465D+00 0.496D+00
 Coeff:      0.224D-03-0.240D-03-0.479D-02-0.227D-01-0.188D-01 0.855D-01
 Coeff:      0.465D+00 0.496D+00
 Gap=     0.328 Goal=   None    Shift=    0.000
 RMSDP=1.44D-05 MaxDP=6.93D-04 DE=-8.27D-07 OVMax= 1.55D-04

 Cycle   9  Pass 1  IDiag  1:
 RMSU=  6.79D-06    CP:  9.91D-01  3.28D-01  1.02D+00  8.37D-01  8.65D-01
                    CP:  1.04D+00  1.17D+00  9.53D-01
 E= -456.124369731528     Delta-E=       -0.000000165003 Rises=F Damp=F
 DIIS: error= 1.16D-05 at cycle   9 NSaved=   9.
 NSaved= 9 IEnMin= 9 EnMin= -456.124369731528     IErMin= 9 ErrMin= 1.16D-05
 ErrMax= 1.16D-05  0.00D+00 EMaxC= 1.00D-01 BMatC= 1.60D-08 BMatP= 2.15D-07
 IDIUse=1 WtCom= 1.00D+00 WtEn= 0.00D+00
 Coeff-Com: -0.372D-04 0.245D-03-0.493D-03-0.274D-02-0.664D-02-0.362D-01
 Coeff-Com:  0.121D-01 0.222D+00 0.812D+00
 Coeff:     -0.372D-04 0.245D-03-0.493D-03-0.274D-02-0.664D-02-0.362D-01
 Coeff:      0.121D-01 0.222D+00 0.812D+00
 Gap=     0.328 Goal=   None    Shift=    0.000
 RMSDP=2.86D-06 MaxDP=5.86D-05 DE=-1.65D-07 OVMax= 5.87D-05

 Cycle  10  Pass 1  IDiag  1:
 RMSU=  1.61D-06    CP:  9.91D-01  3.28D-01  1.02D+00  8.37D-01  8.66D-01
                    CP:  1.05D+00  1.17D+00  1.00D+00  8.13D-01
 E= -456.124369748417     Delta-E=       -0.000000016889 Rises=F Damp=F
 DIIS: error= 1.53D-06 at cycle  10 NSaved=  10.
 NSaved=10 IEnMin=10 EnMin= -456.124369748417     IErMin=10 ErrMin= 1.53D-06
 ErrMax= 1.53D-06  0.00D+00 EMaxC= 1.00D-01 BMatC= 2.11D-10 BMatP= 1.60D-08
 IDIUse=1 WtCom= 1.00D+00 WtEn= 0.00D+00
 Coeff-Com: -0.149D-04 0.583D-04 0.590D-04 0.117D-03-0.685D-03-0.963D-02
 Coeff-Com: -0.927D-02 0.189D-01 0.159D+00 0.841D+00
 Coeff:     -0.149D-04 0.583D-04 0.590D-04 0.117D-03-0.685D-03-0.963D-02
 Coeff:     -0.927D-02 0.189D-01 0.159D+00 0.841D+00
 Gap=     0.328 Goal=   None    Shift=    0.000
 RMSDP=6.18D-07 MaxDP=1.16D-05 DE=-1.69D-08 OVMax= 5.14D-06

 Cycle  11  Pass 1  IDiag  1:
 RMSU=  2.87D-07    CP:  9.91D-01  3.28D-01  1.02D+00  8.37D-01  8.66D-01
                    CP:  1.05D+00  1.18D+00  1.00D+00  8.61D-01  1.03D+00
 E= -456.124369748651     Delta-E=       -0.000000000234 Rises=F Damp=F
 DIIS: error= 6.45D-07 at cycle  11 NSaved=  11.
 NSaved=11 IEnMin=11 EnMin= -456.124369748651     IErMin=11 ErrMin= 6.45D-07
 ErrMax= 6.45D-07  0.00D+00 EMaxC= 1.00D-01 BMatC= 4.97D-11 BMatP= 2.11D-10
 IDIUse=1 WtCom= 1.00D+00 WtEn= 0.00D+00
 Coeff-Com: -0.379D-05 0.723D-05 0.701D-04 0.266D-03 0.243D-03-0.132D-02
 Coeff-Com: -0.529D-02-0.987D-02 0.306D-02 0.385D+00 0.627D+00
 Coeff:     -0.379D-05 0.723D-05 0.701D-04 0.266D-03 0.243D-03-0.132D-02
 Coeff:     -0.529D-02-0.987D-02 0.306D-02 0.385D+00 0.627D+00
 Gap=     0.328 Goal=   None    Shift=    0.000
 RMSDP=1.62D-07 MaxDP=8.71D-06 DE=-2.34D-10 OVMax= 2.26D-06

 Cycle  12  Pass 1  IDiag  1:
 RMSU=  1.12D-07    CP:  9.91D-01  3.28D-01  1.02D+00  8.37D-01  8.66D-01
                    CP:  1.05D+00  1.18D+00  1.00D+00  8.61D-01  1.06D+00
                    CP:  8.54D-01
 E= -456.124369748699     Delta-E=       -0.000000000047 Rises=F Damp=F
 DIIS: error= 1.94D-07 at cycle  12 NSaved=  12.
 NSaved=12 IEnMin=12 EnMin= -456.124369748699     IErMin=12 ErrMin= 1.94D-07
 ErrMax= 1.94D-07  0.00D+00 EMaxC= 1.00D-01 BMatC= 4.03D-12 BMatP= 4.97D-11
 IDIUse=1 WtCom= 1.00D+00 WtEn= 0.00D+00
 Coeff-Com: -0.129D-06-0.154D-05 0.231D-04 0.851D-04 0.148D-03 0.311D-03
 Coeff-Com: -0.146D-02-0.476D-02-0.132D-01 0.765D-01 0.250D+00 0.692D+00
 Coeff:     -0.129D-06-0.154D-05 0.231D-04 0.851D-04 0.148D-03 0.311D-03
 Coeff:     -0.146D-02-0.476D-02-0.132D-01 0.765D-01 0.250D+00 0.692D+00
 Gap=     0.328 Goal=   None    Shift=    0.000
 RMSDP=4.85D-08 MaxDP=1.82D-06 DE=-4.72D-11 OVMax= 5.65D-07

 Cycle  13  Pass 1  IDiag  1:
 RMSU=  2.10D-08    CP:  9.91D-01  3.28D-01  1.02D+00  8.37D-01  8.66D-01
                    CP:  1.05D+00  1.17D+00  1.00D+00  8.60D-01  1.07D+00
                    CP:  8.71D-01  9.47D-01
 E= -456.124369748711     Delta-E=       -0.000000000012 Rises=F Damp=F
 DIIS: error= 5.30D-08 at cycle  13 NSaved=  13.
 NSaved=13 IEnMin=13 EnMin= -456.124369748711     IErMin=13 ErrMin= 5.30D-08
 ErrMax= 5.30D-08  0.00D+00 EMaxC= 1.00D-01 BMatC= 4.56D-13 BMatP= 4.03D-12
 IDIUse=1 WtCom= 1.00D+00 WtEn= 0.00D+00
 Coeff-Com:  0.350D-06-0.154D-05 0.536D-05 0.165D-04 0.525D-04 0.283D-03
 Coeff-Com: -0.229D-03-0.135D-02-0.677D-02-0.118D-02 0.606D-01 0.326D+00
 Coeff-Com:  0.622D+00
 Coeff:      0.350D-06-0.154D-05 0.536D-05 0.165D-04 0.525D-04 0.283D-03
 Coeff:     -0.229D-03-0.135D-02-0.677D-02-0.118D-02 0.606D-01 0.326D+00
 Coeff:      0.622D+00
 Gap=     0.328 Goal=   None    Shift=    0.000
 RMSDP=1.36D-08 MaxDP=4.27D-07 DE=-1.22D-11 OVMax= 1.15D-07

 Cycle  14  Pass 1  IDiag  1:
 RMSU=  8.95D-09    CP:  9.91D-01  3.28D-01  1.02D+00  8.37D-01  8.66D-01
                    CP:  1.05D+00  1.17D+00  1.00D+00  8.60D-01  1.07D+00
                    CP:  8.79D-01  9.49D-01  9.83D-01
 E= -456.124369748704     Delta-E=        0.000000000007 Rises=F Damp=F
 DIIS: error= 8.47D-09 at cycle  14 NSaved=  14.
 NSaved=14 IEnMin=13 EnMin= -456.124369748711     IErMin=14 ErrMin= 8.47D-09
 ErrMax= 8.47D-09  0.00D+00 EMaxC= 1.00D-01 BMatC= 1.07D-14 BMatP= 4.56D-13
 IDIUse=1 WtCom= 1.00D+00 WtEn= 0.00D+00
 Coeff-Com:  0.647D-07-0.109D-06-0.577D-06-0.351D-05-0.142D-05 0.176D-04
 Coeff-Com:  0.615D-04 0.470D-04-0.103D-04-0.499D-02-0.773D-02 0.234D-02
 Coeff-Com:  0.972D-01 0.913D+00
 Coeff:      0.647D-07-0.109D-06-0.577D-06-0.351D-05-0.142D-05 0.176D-04
 Coeff:      0.615D-04 0.470D-04-0.103D-04-0.499D-02-0.773D-02 0.234D-02
 Coeff:      0.972D-01 0.913D+00
 Gap=     0.328 Goal=   None    Shift=    0.000
 RMSDP=2.97D-09 MaxDP=8.75D-08 DE= 6.93D-12 OVMax= 2.93D-08

 SCF Done:  E(RBMK) =  -456.124369749     A.U. after   14 cycles
            NFock= 14  Conv=0.30D-08     -V/T= 2.0074
 KE= 4.527577814705D+02 PE=-1.920617497666D+03 EE= 5.837353223913D+02
 Leave Link  502 at Mon Sep  8 11:54:46 2025, MaxMem=    33554432 cpu:        80.3
 (Enter /nexus/posix0/bmm/home/sucerqdl/sw/g09/l601.exe)
 Copying SCF densities to generalized density rwf, IOpCl= 0 IROHF=0.

 **********************************************************************

            Population analysis using the SCF density.

 **********************************************************************

 Orbital symmetries:
       Occupied  (A) (A) (A) (A) (A) (A) (A) (A) (A) (A) (A) (A)
                 (A) (A) (A) (A) (A) (A) (A) (A) (A) (A) (A) (A)
                 (A) (A) (A) (A) (A) (A) (A) (A) (A) (A) (A)
       Virtual   (A) (A) (A) (A) (A) (A) (A) (A) (A) (A) (A) (A)
                 (A) (A) (A) (A) (A) (A) (A) (A) (A) (A) (A) (A)
                 (A) (A) (A) (A) (A) (A) (A) (A) (A) (A) (A) (A)
                 (A) (A) (A) (A) (A) (A) (A) (A) (A) (A) (A) (A)
                 (A) (A) (A) (A) (A) (A) (A) (A) (A) (A) (A) (A)
                 (A) (A) (A) (A) (A) (A) (A) (A) (A) (A) (A) (A)
                 (A) (A) (A) (A) (A) (A) (A) (A) (A) (A) (A) (A)
                 (A) (A) (A) (A) (A) (A) (A) (A) (A) (A) (A) (A)
                 (A) (A) (A) (A) (A) (A)
 The electronic state is 1-A.
 Alpha  occ. eigenvalues --  -19.54009 -19.52102 -14.72620 -14.71795 -10.62836
 Alpha  occ. eigenvalues --  -10.61294 -10.54392 -10.53274 -10.49319  -1.15220
 Alpha  occ. eigenvalues --   -1.13711  -1.00186  -0.99036  -0.82409  -0.79788
 Alpha  occ. eigenvalues --   -0.76403  -0.64991  -0.64350  -0.58716  -0.53391
 Alpha  occ. eigenvalues --   -0.52608  -0.52359  -0.50627  -0.50130  -0.48622
 Alpha  occ. eigenvalues --   -0.47271  -0.45453  -0.44860  -0.43925  -0.43597
 Alpha  occ. eigenvalues --   -0.40487  -0.31879  -0.31104  -0.29831  -0.29629
 Alpha virt. eigenvalues --    0.03190   0.03312   0.04080   0.04398   0.04871
 Alpha virt. eigenvalues --    0.06698   0.06953   0.08060   0.08774   0.09071
 Alpha virt. eigenvalues --    0.10110   0.10696   0.11221   0.11742   0.13086
 Alpha virt. eigenvalues --    0.13200   0.13381   0.15657   0.15996   0.16274
 Alpha virt. eigenvalues --    0.17372   0.18240   0.19654   0.20501   0.20534
 Alpha virt. eigenvalues --    0.21880   0.22857   0.23286   0.23971   0.24659
 Alpha virt. eigenvalues --    0.25069   0.25503   0.26928   0.27233   0.28379
 Alpha virt. eigenvalues --    0.28771   0.29024   0.30082   0.30996   0.31403
 Alpha virt. eigenvalues --    0.31915   0.33469   0.35170   0.36185   0.36426
 Alpha virt. eigenvalues --    0.37902   0.38117   0.39389   0.40919   0.41698
 Alpha virt. eigenvalues --    0.44510   0.46092   0.46416   0.48816   0.53416
 Alpha virt. eigenvalues --    0.56541   0.67630   0.69227   0.69829   0.71194
 Alpha virt. eigenvalues --    0.71594   0.74143   0.77291   0.78814   0.79306
 Alpha virt. eigenvalues --    0.82679   0.85193   0.86206   0.91490   0.94116
 Alpha virt. eigenvalues --    0.98439   0.99024   1.01406   1.03779   1.10439
 Alpha virt. eigenvalues --    1.11968   1.12336   1.12651   1.14061   1.16736
 Alpha virt. eigenvalues --    1.17813   1.19628   1.21513   1.24454   1.25508
 Alpha virt. eigenvalues --    1.29418   1.34442   1.35650   1.36923   1.37165
 Alpha virt. eigenvalues --    1.43054   1.44524   1.48537   1.49780   1.51205
 Alpha virt. eigenvalues --    1.56004   1.58160   1.64133   1.70071   1.85619
 Alpha virt. eigenvalues --    2.06294   2.13939
          Condensed to atoms (all electrons):
               1          2          3          4          5          6
     1  C    6.554916   0.353146   0.417407   0.417403  -0.425227  -0.131552
     2  H    0.353146   0.529153  -0.026161  -0.026162  -0.039599   0.007011
     3  H    0.417407  -0.026161   0.465557  -0.021454  -0.058969  -0.005061
     4  H    0.417403  -0.026162  -0.021454   0.465559  -0.058965  -0.005061
     5  C   -0.425227  -0.039599  -0.058969  -0.058965   5.912374   0.449911
     6  O   -0.131552   0.007011  -0.005061  -0.005061   0.449911   8.495325
     7  N   -0.300953   0.008685   0.001193   0.001192  -0.120627  -0.232568
     8  H    0.011413   0.000186   0.000021   0.000021   0.022325   0.005218
     9  C   -0.263723   0.001033  -0.005112  -0.005112  -0.882179  -0.046983
    10  H   -0.001973   0.000000   0.000018  -0.000006  -0.000024   0.001118
    11  H   -0.001973   0.000000  -0.000006   0.000018  -0.000025   0.001117
    12  C    0.119951  -0.000021  -0.000577  -0.000576   0.510134   0.015240
    13  O   -0.001600  -0.000001   0.000002   0.000002   0.008475  -0.000273
    14  N   -0.000081   0.000016  -0.000002  -0.000002   0.015267  -0.002954
    15  H    0.000084   0.000000   0.000000   0.000000   0.001569   0.000124
    16  C    0.000638   0.000004   0.000000   0.000000   0.006813  -0.000346
    17  H    0.000002   0.000000   0.000000   0.000000   0.000035   0.000000
    18  H   -0.000003   0.000000   0.000000   0.000000  -0.000113   0.000000
    19  H    0.000002   0.000000   0.000000   0.000000   0.000035   0.000000
               7          8          9         10         11         12
     1  C   -0.300953   0.011413  -0.263723  -0.001973  -0.001973   0.119951
     2  H    0.008685   0.000186   0.001033   0.000000   0.000000  -0.000021
     3  H    0.001193   0.000021  -0.005112   0.000018  -0.000006  -0.000577
     4  H    0.001192   0.000021  -0.005112  -0.000006   0.000018  -0.000576
     5  C   -0.120627   0.022325  -0.882179  -0.000024  -0.000025   0.510134
     6  O   -0.232568   0.005218  -0.046983   0.001118   0.001117   0.015240
     7  N    7.828465   0.261863   0.291340  -0.050342  -0.050342  -0.114214
     8  H    0.261863   0.305389  -0.070727   0.001947   0.001947   0.031634
     9  C    0.291340  -0.070727  11.854459   0.335554   0.335548  -4.067341
    10  H   -0.050342   0.001947   0.335554   0.491769  -0.037223  -0.001481
    11  H   -0.050342   0.001947   0.335548  -0.037223   0.491768  -0.001475
    12  C   -0.114214   0.031634  -4.067341  -0.001481  -0.001475   8.069899
    13  O    0.019685   0.006562   0.081011   0.000628   0.000628   0.226198
    14  N    0.015466   0.003026  -0.824711   0.016144   0.016144   0.516119
    15  H    0.000341  -0.000008   0.041463  -0.000380  -0.000380  -0.033305
    16  C    0.002908   0.000855  -0.225036   0.003314   0.003314   0.003753
    17  H   -0.000033   0.000000   0.006726   0.000013  -0.000004  -0.003232
    18  H   -0.000068   0.000000  -0.010069  -0.000005  -0.000005  -0.008663
    19  H   -0.000033   0.000000   0.006726  -0.000004   0.000013  -0.003233
              13         14         15         16         17         18
     1  C   -0.001600  -0.000081   0.000084   0.000638   0.000002  -0.000003
     2  H   -0.000001   0.000016   0.000000   0.000004   0.000000   0.000000
     3  H    0.000002  -0.000002   0.000000   0.000000   0.000000   0.000000
     4  H    0.000002  -0.000002   0.000000   0.000000   0.000000   0.000000
     5  C    0.008475   0.015267   0.001569   0.006813   0.000035  -0.000113
     6  O   -0.000273  -0.002954   0.000124  -0.000346   0.000000   0.000000
     7  N    0.019685   0.015466   0.000341   0.002908  -0.000033  -0.000068
     8  H    0.006562   0.003026  -0.000008   0.000855   0.000000   0.000000
     9  C    0.081011  -0.824711   0.041463  -0.225036   0.006726  -0.010069
    10  H    0.000628   0.016144  -0.000380   0.003314   0.000013  -0.000005
    11  H    0.000628   0.016144  -0.000380   0.003314  -0.000004  -0.000005
    12  C    0.226198   0.516119  -0.033305   0.003753  -0.003232  -0.008663
    13  O    8.488869  -0.227834   0.007576  -0.032735   0.000311   0.006035
    14  N   -0.227834   7.727360   0.270887   0.186641  -0.045684  -0.046909
    15  H    0.007576   0.270887   0.369890  -0.025492  -0.001099   0.002564
    16  C   -0.032735   0.186641  -0.025492   5.301274   0.385754   0.415270
    17  H    0.000311  -0.045684  -0.001099   0.385754   0.508394  -0.022947
    18  H    0.006035  -0.046909   0.002564   0.415270  -0.022947   0.445027
    19  H    0.000311  -0.045683  -0.001099   0.385753  -0.034954  -0.022947
              19
     1  C    0.000002
     2  H    0.000000
     3  H    0.000000
     4  H    0.000000
     5  C    0.000035
     6  O    0.000000
     7  N   -0.000033
     8  H    0.000000
     9  C    0.006726
    10  H   -0.000004
    11  H    0.000013
    12  C   -0.003233
    13  O    0.000311
    14  N   -0.045683
    15  H   -0.001099
    16  C    0.385753
    17  H   -0.034954
    18  H   -0.022947
    19  H    0.508393
 Mulliken charges:
               1
     1  C   -0.747876
     2  H    0.192711
     3  H    0.233145
     4  H    0.233144
     5  C    0.658787
     6  O   -0.550266
     7  N   -0.561959
     8  H    0.418329
     9  C   -0.552867
    10  H    0.240935
    11  H    0.240935
    12  C    0.741191
    13  O   -0.583852
    14  N   -0.573211
    15  H    0.367265
    16  C   -0.412682
    17  H    0.206718
    18  H    0.242834
    19  H    0.206719
 Sum of Mulliken charges =   0.00000
 Mulliken charges with hydrogens summed into heavy atoms:
               1
     1  C   -0.088876
     5  C    0.658787
     6  O   -0.550266
     7  N   -0.143630
     9  C   -0.070997
    12  C    0.741191
    13  O   -0.583852
    14  N   -0.205946
    16  C    0.243589
 Electronic spatial extent (au):  <R**2>=           2087.2496
 Charge=              0.0000 electrons
 Dipole moment (field-independent basis, Debye):
    X=              2.5078    Y=             -0.4619    Z=              0.0000  Tot=              2.5500
 Quadrupole moment (field-independent basis, Debye-Ang):
   XX=            -41.2108   YY=            -61.7187   ZZ=            -55.2376
   XY=            -18.2050   XZ=              0.0000   YZ=              0.0000
 Traceless Quadrupole moment (field-independent basis, Debye-Ang):
   XX=             11.5115   YY=             -8.9963   ZZ=             -2.5152
   XY=            -18.2050   XZ=              0.0000   YZ=              0.0000
 Octapole moment (field-independent basis, Debye-Ang**2):
  XXX=             46.0346  YYY=             -1.4034  ZZZ=              0.0000  XYY=             10.6903
  XXY=             11.6057  XXZ=              0.0001  XZZ=             -1.1641  YZZ=             -2.0590
  YYZ=              0.0000  XYZ=             -0.0001
 Hexadecapole moment (field-independent basis, Debye-Ang**3):
 XXXX=          -2000.4792 YYYY=           -306.2173 ZZZZ=            -74.5748 XXXY=            -96.9919
 XXXZ=              0.0003 YYYX=            -53.5991 YYYZ=             -0.0003 ZZZX=             -0.0003
 ZZZY=              0.0001 XXYY=           -482.1570 XXZZ=           -397.3479 YYZZ=            -62.1133
 XXYZ=              0.0003 YYXZ=              0.0002 ZZXY=              2.7576
 N-N= 4.280000240554D+02 E-N=-1.920617497690D+03  KE= 4.527577814705D+02
 No NMR shielding tensors so no spin-rotation constants.
 Leave Link  601 at Mon Sep  8 11:54:46 2025, MaxMem=    33554432 cpu:         1.4
 (Enter /nexus/posix0/bmm/home/sucerqdl/sw/g09/l701.exe)
 Compute integral first derivatives.
 ... and contract with generalized density number  0.
 PrsmSu:  requested number of processors reduced to:   9 ShMem   1 Linda.
 Leave Link  701 at Mon Sep  8 11:54:46 2025, MaxMem=    33554432 cpu:         1.3
 (Enter /nexus/posix0/bmm/home/sucerqdl/sw/g09/l702.exe)
 L702 exits ... SP integral derivatives will be done elsewhere.
 Leave Link  702 at Mon Sep  8 11:54:47 2025, MaxMem=    33554432 cpu:         0.3
 (Enter /nexus/posix0/bmm/home/sucerqdl/sw/g09/l703.exe)
 Compute integral first derivatives, UseDBF=F ICtDFT=           0.
 Integral derivatives from FoFJK, PRISM(SPDF).
 Calling FoFJK, ICntrl=      2127 FMM=F ISym2X=0 I1Cent= 0 IOpClX= 0 NMat=1 NMatS=1 NMatT=0.
 FoFJK:  IHMeth= 1 ICntrl=    2127 DoSepK=F KAlg= 0 I1Cent=   0 FoldK=F
 IRaf=         0 NMat=   1 IRICut=       1 DoRegI=T DoRafI=F ISym2E= 0.
 FoFCou: FMM=F IPFlag=           0 FMFlag=      100000 FMFlg1=         800
         NFxFlg=           0 DoJE=F BraDBF=F KetDBF=F FulRan=T
         wScrn=  0.000000 ICntrl=    2127 IOpCl=  0 I1Cent=           0 NGrid=           0
         NMat0=    1 NMatS0=      1 NMatT0=    0 NMatD0=    1 NMtDS0=    0 NMtDT0=    0
 Symmetry not used in FoFCou.
 Leave Link  703 at Mon Sep  8 11:54:47 2025, MaxMem=    33554432 cpu:         6.9
 (Enter /nexus/posix0/bmm/home/sucerqdl/sw/g09/l716.exe)
 Dipole        = 9.86649814D-01-1.81718019D-01-5.63267547D-06
 ***** Axes restored to original set *****
 -------------------------------------------------------------------
 Center     Atomic                   Forces (Hartrees/Bohr)
 Number     Number              X              Y              Z
 -------------------------------------------------------------------
      1        6          -0.024044601   -0.043710240   -0.001338052
      2        1           0.000000125    0.000000171   -0.000002114
      3        1          -0.000003492   -0.000001458   -0.000004180
      4        1           0.000000703   -0.000003719   -0.000004251
      5        6          -0.000000418   -0.000001184    0.000004021
      6        8           0.000000280    0.000000602   -0.000002278
      7        7           0.000002485    0.000004359   -0.000007782
      8        1           0.000000307    0.000000716   -0.000000855
      9        6          -0.000000113    0.000000066   -0.000000955
     10        1          -0.000000299   -0.000000927    0.000000196
     11        1          -0.000000811   -0.000001052    0.000000437
     12        6          -0.000002949   -0.000005346   -0.000004107
     13        8           0.000000563    0.000001038    0.000001352
     14        7           0.000001552    0.000002800    0.000007209
     15        1          -0.000000284   -0.000000629    0.000001684
     16        6           0.024044611    0.043710646    0.001342556
     17        1          -0.000000190    0.000001687    0.000002161
     18        1           0.000000996    0.000001675    0.000002910
     19        1           0.000001535    0.000000794    0.000002050
 -------------------------------------------------------------------
 Cartesian Forces:  Max     0.043710646 RMS     0.009348126
 -----------------------------------------------------------------------------------------------
                       Internal Coordinate Forces (Hartree/Bohr or radian)
  Cent   Atom   N1       Length/X         N2         Alpha/Y        N3         Beta/Z          J
 -----------------------------------------------------------------------------------------------
      1  C 
      2  H        1  -0.000002(     1)
      3  H        1  -0.000002(     2)      2   0.000011(    19)
      4  H        1  -0.000002(     3)      2   0.000011(    20)      3  -0.000003(    36)     0
      5  C        1  -0.046256(     4)      2  -0.000231(    21)      3   0.000000(    37)     0
      6  O        5   0.000002(     5)      1  -0.000002(    22)      2   0.000000(    38)     0
      7  N        5  -0.042793(     6)      1  -0.057962(    23)      6   0.000000(    39)     0
      8  H        7  -0.000001(     7)      5  -0.000001(    24)      1   0.000000(    40)     0
      9  C        7  -0.043778(     8)      5  -0.010419(    25)      8   0.000000(    41)     0
     10  H        9   0.000000(     9)      7   0.000002(    26)      5   0.000000(    42)     0
     11  H        9   0.000000(    10)      7   0.000002(    27)     10  -0.000002(    43)     0
     12  C        9  -0.041875(    11)      7  -0.058209(    28)     10   0.000000(    44)     0
     13  O       12   0.000001(    12)      9  -0.000003(    29)      7   0.000000(    45)     0
     14  N       12  -0.042819(    13)      9  -0.024172(    30)     13   0.000000(    46)     0
     15  H       14  -0.000002(    14)     12   0.000001(    31)      9   0.000000(    47)     0
     16  C       14  -0.047630(    15)     12  -0.043908(    32)     15   0.000000(    48)     0
     17  H       16  -0.000002(    16)     14   0.000000(    33)     12   0.000000(    49)     0
     18  H       16   0.000003(    17)     14  -0.000004(    34)     17   0.000000(    50)     0
     19  H       16  -0.000002(    18)     14   0.000000(    35)     17  -0.000003(    51)     0
 -----------------------------------------------------------------------------------------------
 Internal  Forces:  Max     0.058208886 RMS     0.020345867
 Leave Link  716 at Mon Sep  8 11:54:47 2025, MaxMem=    33554432 cpu:         0.5
 (Enter /nexus/posix0/bmm/home/sucerqdl/sw/g09/l103.exe)

 GradGradGradGradGradGradGradGradGradGradGradGradGradGradGradGradGradGrad
 Berny optimization.
 Search for a local minimum.
 Step number   1 out of a maximum of    2
 All quantities printed in internal units (Hartrees-Bohrs-Radians)
 Second derivative matrix not updated -- first step.
 ITU=  0
     Eigenvalues ---    0.01096   0.01252   0.01262   0.01448   0.02763
     Eigenvalues ---    0.03085   0.05458   0.05854   0.06890   0.08256
     Eigenvalues ---    0.08498   0.12094   0.12753   0.13355   0.13887
     Eigenvalues ---    0.14655   0.19879   0.19880   0.21864   0.23186
     Eigenvalues ---    0.23428   0.23838   0.25000   0.25001   0.25104
     Eigenvalues ---    0.27016   0.30782   0.30974   0.33736   0.33736
     Eigenvalues ---    0.34214   0.34382   0.34382   0.34400   0.34400
     Eigenvalues ---    0.34410   0.35349   0.37087   0.37760   0.40251
     Eigenvalues ---    0.41300   0.44222   0.44865   0.45518   0.45591
     Eigenvalues ---    0.53121   0.53122   0.75000   0.75001   0.84679
     Eigenvalues ---    0.87664
 Quadratic step=5.099D-01 exceeds max=3.000D-01 adjusted using Lamda=-1.736D-01.
 Angle between NR and scaled steps=  10.29 degrees.
 Angle between quadratic step and forces=  14.18 degrees.
 Linear search not attempted -- first point.
 Variable       Old X    -DE/DX   Delta X   Delta X   Delta X     New X
                                 (Linear)    (Quad)   (Total)
    R2        2.06970   0.00000   0.00000   0.00000   0.00000   2.06969
    R3        2.06690   0.00000   0.00000   0.00000   0.00000   2.06690
    R4        2.06690   0.00000   0.00000   0.00000   0.00000   2.06690
    R5        3.07921  -0.04626   0.00000  -0.11791  -0.11791   2.96129
    R6        2.35487   0.00000   0.00000   0.00000   0.00000   2.35487
    R7        2.66190  -0.04279   0.00000  -0.06949  -0.06949   2.59242
    R8        1.91295   0.00000   0.00000   0.00000   0.00000   1.91295
    R9        2.86430  -0.04378   0.00000  -0.09093  -0.09093   2.77337
   R10        2.07779   0.00000   0.00000   0.00000   0.00000   2.07779
   R11        2.07779   0.00000   0.00000   0.00000   0.00000   2.07779
   R12        3.03381  -0.04188   0.00000  -0.10265  -0.10265   2.93116
   R13        2.34029   0.00000   0.00000   0.00000   0.00000   2.34029
   R14        2.65432  -0.04282   0.00000  -0.06881  -0.06881   2.58552
   R15        1.91379   0.00000   0.00000   0.00000   0.00000   1.91379
   R16        2.94342  -0.04763   0.00000  -0.10732  -0.10732   2.83609
   R17        2.06660   0.00000   0.00000   0.00000   0.00000   2.06660
   R18        2.06643   0.00000   0.00000   0.00001   0.00001   2.06644
   R19        2.06660   0.00000   0.00000   0.00000   0.00000   2.06660
    A3        1.93430   0.00001   0.00000   0.00009   0.00009   1.93440
    A4        1.93430   0.00001   0.00000   0.00008   0.00008   1.93438
    A5        1.98290  -0.00023   0.00000  -0.00057  -0.00057   1.98232
    A6        2.00916   0.00000   0.00000   0.03703   0.03703   2.04619
    A7        2.21585  -0.05796   0.00000  -0.09978  -0.09978   2.11607
    A8        2.13736   0.00000   0.00000   0.00635   0.00635   2.14371
    A9        2.09999  -0.01042   0.00000  -0.01960  -0.01960   2.08039
   A10        1.87813   0.00000   0.00000   0.01658   0.01658   1.89471
   A11        1.87812   0.00000   0.00000   0.01451   0.01451   1.89263
   A12        2.06553  -0.05821   0.00000  -0.11825  -0.11825   1.94728
   A13        2.10388   0.00000   0.00000   0.01544   0.01544   2.11932
   A14        2.02657  -0.02417   0.00000  -0.04162  -0.04162   1.98495
   A15        2.01360   0.00000   0.00000   0.02676   0.02676   2.04036
   A16        2.29824  -0.04391   0.00000  -0.08256  -0.08256   2.21567
   A17        1.88999   0.00000   0.00000   0.00004   0.00004   1.89003
   A18        1.87258   0.00000   0.00000  -0.00004  -0.00004   1.87255
   A19        1.88999   0.00000   0.00000   0.00004   0.00004   1.89003
    D4       -2.13580   0.00000   0.00000  -0.00013  -0.00013  -2.13593
    D5        2.07369   0.00000   0.00000  -0.00003  -0.00003   2.07366
    D6       -3.14156   0.00000   0.00000   0.00004   0.00004  -3.14152
    D7        3.14159   0.00000   0.00000   0.00002   0.00002   3.14161
    D8       -0.00001   0.00000   0.00000  -0.00001  -0.00001  -0.00001
    D9       -3.14158   0.00000   0.00000   0.00025   0.00025  -3.14133
   D10        0.99986   0.00000   0.00000   0.00070   0.00070   1.00056
   D11       -1.99969   0.00000   0.00000  -0.02203  -0.02203  -2.02172
   D12        2.14174   0.00000   0.00000  -0.00518  -0.00518   2.13656
   D13       -0.00002   0.00000   0.00000  -0.00020  -0.00020  -0.00021
   D14       -3.14159   0.00000   0.00000  -0.00001  -0.00001  -3.14160
   D15       -0.00001   0.00000   0.00000   0.00004   0.00004   0.00002
   D16        3.14159   0.00000   0.00000  -0.00010  -0.00010   3.14149
   D17       -2.08388   0.00000   0.00000   0.00001   0.00001  -2.08388
   D18        2.08388   0.00000   0.00000  -0.00003  -0.00003   2.08385
   D19       -2.11543   0.00000   0.00000  -0.00010  -0.00010  -2.11553
         Item               Value     Threshold  Converged?
 Maximum Force            0.058209     0.000450     NO 
 RMS     Force            0.020346     0.000300     NO 
 Maximum Displacement     0.118250     0.001800     NO 
 RMS     Displacement     0.042014     0.001200     NO 
 Predicted change in Energy=-2.894956D-02
 GradGradGradGradGradGradGradGradGradGradGradGradGradGradGradGradGradGrad

 Leave Link  103 at Mon Sep  8 11:54:47 2025, MaxMem=    33554432 cpu:         0.3
 (Enter /nexus/posix0/bmm/home/sucerqdl/sw/g09/l9999.exe)
 1\1\GINC-SLURM-ORBIT-CPU1\Force\RBMK\6-31+G\C5H10N2O2\SUCERQDL\08-Sep-
 2025\1\\#P bmk/6-31+g force\\Gaussian input prepared by ASE\\0,1\C\H,1
 ,R2\H,1,R3,2,A3\H,1,R4,2,A4,3,D4,0\C,1,R5,2,A5,3,D5,0\O,5,R6,1,A6,2,D6
 ,0\N,5,R7,1,A7,6,D7,0\H,7,R8,5,A8,1,D8,0\C,7,R9,5,A9,8,D9,0\H,9,R10,7,
 A10,5,D10,0\H,9,R11,7,A11,10,D11,0\C,9,R12,7,A12,10,D12,0\O,12,R13,9,A
 13,7,D13,0\N,12,R14,9,A14,13,D14,0\H,14,R15,12,A15,9,D15,0\C,14,R16,12
 ,A16,15,D16,0\H,16,R17,14,A17,12,D17,0\H,16,R18,14,A18,17,D18,0\H,16,R
 19,14,A19,17,D19,0\\R2=1.09523642\R3=1.09375735\R4=1.09375775\R5=1.629
 44613\R6=1.24614146\R7=1.40861707\R8=1.01229031\R9=1.5157214\R10=1.099
 51697\R11=1.09951673\R12=1.60542429\R13=1.23842639\R14=1.40460701\R15=
 1.01273464\R16=1.55758893\R17=1.09359849\R18=1.09350904\R19=1.09359849
 \A3=110.82729146\A4=110.82709244\A5=113.61171957\A6=115.11642765\A7=12
 6.95858165\A8=122.46185045\A9=120.32065746\A10=107.60874638\A11=107.60
 862183\A12=118.34617421\A13=120.54360361\A14=116.11372897\A15=115.3707
 064\A16=131.67925922\A17=108.28834961\A18=107.29105319\A19=108.2884482
 4\D4=-122.37219836\D5=118.81386732\D6=-179.99825159\D7=180.\D8=-0.0002
 9195\D9=-179.99937967\D10=57.28782243\D11=-114.57388814\D12=122.712778
 25\D13=-0.00099429\D14=-179.99969117\D15=-0.00067088\D16=180.\D17=-119
 .39769577\D18=119.39738332\D19=-121.20530188\\Version=ES64L-G09RevD.01
 \State=1-A\HF=-456.1243697\RMSD=2.972e-09\RMSF=9.348e-03\Dipole=-0.481
 1676,-0.8747266,-0.0991483\Quadrupole=1.0483173,7.7754611,-8.8237784,5
 .3055281,5.8255366,10.5897439\PG=C01 [X(C5H10N2O2)]\\@


 TO SEE A WORLD IN A GRAIN OF SAND
 AND A HEAVEN IN A WILD FLOWER
 HOLD INFINITY IN THE PALM OF YOUR HAND
 AND ETERNITY IN AN HOUR

                       -- WILLIAM BLAKE
 Job cpu time:       0 days  0 hours  1 minutes 41.0 seconds.
 File lengths (MBytes):  RWF=    132 Int=      0 D2E=      0 Chk=      3 Scr=      2
 Normal termination of Gaussian 09 at Mon Sep  8 11:54:47 2025.
