 Entering Gaussian System, Link 0=g09
 Input=G-forces07.com
 Output=G-forces07.log
 Initial command:
 /nexus/posix0/bmm/home/sucerqdl/sw/g09/l1.exe "/nexus/posix0/bmm/home/sucerqdl/sw/g09/g09_scratch/Gau-2771032.inp" -scrdir="/nexus/posix0/bmm/home/sucerqdl/sw/g09/g09_scratch/"
 Entering Link 1 = /nexus/posix0/bmm/home/sucerqdl/sw/g09/l1.exe PID=   2771049.
  
 Copyright (c) 1988,1990,1992,1993,1995,1998,2003,2009,2013,
            Gaussian, Inc.  All Rights Reserved.
  
 This is part of the Gaussian(R) 09 program.  It is based on
 the Gaussian(R) 03 system (copyright 2003, Gaussian, Inc.),
 the Gaussian(R) 98 system (copyright 1998, Gaussian, Inc.),
 the Gaussian(R) 94 system (copyright 1995, Gaussian, Inc.),
 the Gaussian 92(TM) system (copyright 1992, Gaussian, Inc.),
 the Gaussian 90(TM) system (copyright 1990, Gaussian, Inc.),
 the Gaussian 88(TM) system (copyright 1988, Gaussian, Inc.),
 the Gaussian 86(TM) system (copyright 1986, Carnegie Mellon
 University), and the Gaussian 82(TM) system (copyright 1983,
 Carnegie Mellon University). Gaussian is a federally registered
 trademark of Gaussian, Inc.
  
 This software contains proprietary and confidential information,
 including trade secrets, belonging to Gaussian, Inc.
  
 This software is provided under written license and may be
 used, copied, transmitted, or stored only in accord with that
 written license.
  
 The following legend is applicable only to US Government
 contracts under FAR:
  
                    RESTRICTED RIGHTS LEGEND
  
 Use, reproduction and disclosure by the US Government is
 subject to restrictions as set forth in subparagraphs (a)
 and (c) of the Commercial Computer Software - Restricted
 Rights clause in FAR 52.227-19.
  
 Gaussian, Inc.
 340 Quinnipiac St., Bldg. 40, Wallingford CT 06492
  
  
 ---------------------------------------------------------------
 Warning -- This program may not be used in any manner that
 competes with the business of Gaussian, Inc. or will provide
 assistance to any competitor of Gaussian, Inc.  The licensee
 of this program is prohibited from giving any competitor of
 Gaussian, Inc. access to this program.  By using this program,
 the user acknowledges that Gaussian, Inc. is engaged in the
 business of creating and licensing software in the field of
 computational chemistry and represents and warrants to the
 licensee that it is not a competitor of Gaussian, Inc. and that
 it will not use this program in any manner prohibited above.
 ---------------------------------------------------------------
  

 Cite this work as:
 Gaussian 09, Revision D.01,
 M. J. Frisch, G. W. Trucks, H. B. Schlegel, G. E. Scuseria, 
 M. A. Robb, J. R. Cheeseman, G. Scalmani, V. Barone, B. Mennucci, 
 G. A. Petersson, H. Nakatsuji, M. Caricato, X. Li, H. P. Hratchian, 
 A. F. Izmaylov, J. Bloino, G. Zheng, J. L. Sonnenberg, M. Hada, 
 M. Ehara, K. Toyota, R. Fukuda, J. Hasegawa, M. Ishida, T. Nakajima, 
 Y. Honda, O. Kitao, H. Nakai, T. Vreven, J. A. Montgomery, Jr., 
 J. E. Peralta, F. Ogliaro, M. Bearpark, J. J. Heyd, E. Brothers, 
 K. N. Kudin, V. N. Staroverov, T. Keith, R. Kobayashi, J. Normand, 
 K. Raghavachari, A. Rendell, J. C. Burant, S. S. Iyengar, J. Tomasi, 
 M. Cossi, N. Rega, J. M. Millam, M. Klene, J. E. Knox, J. B. Cross, 
 V. Bakken, C. Adamo, J. Jaramillo, R. Gomperts, R. E. Stratmann, 
 O. Yazyev, A. J. Austin, R. Cammi, C. Pomelli, J. W. Ochterski, 
 R. L. Martin, K. Morokuma, V. G. Zakrzewski, G. A. Voth, 
 P. Salvador, J. J. Dannenberg, S. Dapprich, A. D. Daniels, 
 O. Farkas, J. B. Foresman, J. V. Ortiz, J. Cioslowski, 
 and D. J. Fox, Gaussian, Inc., Wallingford CT, 2013.
 
 ******************************************
 Gaussian 09:  ES64L-G09RevD.01 24-Apr-2013
                16-Sep-2025 
 ******************************************
 %chk=G-forces07
 %NProcShared=16
 Will use up to   16 processors via shared memory.
 -------------------
 #P bmk/6-31+g force
 -------------------
 1/10=7,30=1,38=1/1,3;
 2/12=2,17=6,18=5,40=1/2;
 3/5=1,6=6,7=10,11=2,16=1,25=1,30=1,71=1,74=-34/1,2,3;
 4//1;
 5/5=2,38=5/2;
 6/7=2,8=2,9=2,10=2,28=1/1;
 7/29=1/1,2,3,16;
 1/10=7,30=1/3;
 99//99;
 Leave Link    1 at Tue Sep 16 15:20:09 2025, MaxMem=           0 cpu:         1.4
 (Enter /nexus/posix0/bmm/home/sucerqdl/sw/g09/l101.exe)
 ------------------------------
 Gaussian input prepared by ASE
 ------------------------------
 Symbolic Z-matrix:
 Charge =  0 Multiplicity = 1
 C
 H                    1    R2
 H                    1    R3       2    A3
 H                    1    R4       2    A4       3    D4       0
 C                    1    R5       2    A5       3    D5       0
 O                    5    R6       1    A6       2    D6       0
 N                    5    R7       1    A7       6    D7       0
 H                    7    R8       5    A8       1    D8       0
 C                    7    R9       5    A9       8    D9       0
 H                    9    R10      7    A10      5    D10      0
 H                    9    R11      7    A11      10   D11      0
 C                    9    R12      7    A12      10   D12      0
 O                    12   R13      9    A13      7    D13      0
 N                    12   R14      9    A14      13   D14      0
 H                    14   R15      12   A15      9    D15      0
 C                    14   R16      12   A16      15   D16      0
 H                    16   R17      14   A17      12   D17      0
 H                    16   R18      14   A18      17   D18      0
 H                    16   R19      14   A19      17   D19      0
       Variables:
  R2                    1.09259                  
  R3                    1.09114                  
  R4                    1.09114                  
  R5                    1.79179                  
  R6                    1.23948                  
  R7                    1.447                    
  R8                    1.01246                  
  R9                    1.57542                  
  R10                   1.09742                  
  R11                   1.09742                  
  R12                   1.68986                  
  R13                   1.233                    
  R14                   1.43924                  
  R15                   1.01426                  
  R16                   1.66826                  
  R17                   1.09075                  
  R18                   1.09132                  
  R19                   1.09075                  
  A3                  112.9614                   
  A4                  112.9613                   
  A5                  113.66086                  
  A6                  110.10963                  
  A7                  132.74146                  
  A8                  120.66213                  
  A9                  122.94783                  
  A10                 106.30233                  
  A11                 106.30232                  
  A12                 122.32784                  
  A13                 118.6329                   
  A14                 118.84575                  
  A15                 114.16035                  
  A16                 136.31098                  
  A17                 105.53662                  
  A18                 106.51169                  
  A19                 105.53637                  
  D4                 -128.78205                  
  D5                  115.60895                  
  D6                 -179.99985                  
  D7                  180.                       
  D8                   -0.00021                  
  D9                 -179.99971                  
  D10                  57.27805                  
  D11                -114.55579                  
  D12                 122.72202                  
  D13                  -0.00032                  
  D14                -179.99993                  
  D15                  -0.00019                  
  D16                 180.                       
  D17                -119.66733                  
  D18                 119.66904                  
  D19                -120.66206                  
 
 NAtoms=     19 NQM=       19 NQMF=       0 NMMI=      0 NMMIF=      0
                NMic=       0 NMicF=      0.
                    Isotopes and Nuclear Properties:
 (Nuclear quadrupole moments (NQMom) in fm**2, nuclear magnetic moments (NMagM)
  in nuclear magnetons)

  Atom         1           2           3           4           5           6           7           8           9          10
 IAtWgt=          12           1           1           1          12          16          14           1          12           1
 AtmWgt=  12.0000000   1.0078250   1.0078250   1.0078250  12.0000000  15.9949146  14.0030740   1.0078250  12.0000000   1.0078250
 NucSpn=           0           1           1           1           0           0           2           1           0           1
 AtZEff=   0.0000000   0.0000000   0.0000000   0.0000000   0.0000000   0.0000000   0.0000000   0.0000000   0.0000000   0.0000000
 NQMom=    0.0000000   0.0000000   0.0000000   0.0000000   0.0000000   0.0000000   2.0440000   0.0000000   0.0000000   0.0000000
 NMagM=    0.0000000   2.7928460   2.7928460   2.7928460   0.0000000   0.0000000   0.4037610   2.7928460   0.0000000   2.7928460
 AtZNuc=   6.0000000   1.0000000   1.0000000   1.0000000   6.0000000   8.0000000   7.0000000   1.0000000   6.0000000   1.0000000

  Atom        11          12          13          14          15          16          17          18          19
 IAtWgt=           1          12          16          14           1          12           1           1           1
 AtmWgt=   1.0078250  12.0000000  15.9949146  14.0030740   1.0078250  12.0000000   1.0078250   1.0078250   1.0078250
 NucSpn=           1           0           0           2           1           0           1           1           1
 AtZEff=   0.0000000   0.0000000   0.0000000   0.0000000   0.0000000   0.0000000   0.0000000   0.0000000   0.0000000
 NQMom=    0.0000000   0.0000000   0.0000000   2.0440000   0.0000000   0.0000000   0.0000000   0.0000000   0.0000000
 NMagM=    2.7928460   0.0000000   0.0000000   0.4037610   2.7928460   0.0000000   2.7928460   2.7928460   2.7928460
 AtZNuc=   1.0000000   6.0000000   8.0000000   7.0000000   1.0000000   6.0000000   1.0000000   1.0000000   1.0000000
 Leave Link  101 at Tue Sep 16 15:20:09 2025, MaxMem=    33554432 cpu:         1.6
 (Enter /nexus/posix0/bmm/home/sucerqdl/sw/g09/l103.exe)

 GradGradGradGradGradGradGradGradGradGradGradGradGradGradGradGradGradGrad
 Berny optimization.
 Initialization pass.
                       ----------------------------
                       !    Initial Parameters    !
                       ! (Angstroms and Degrees)  !
 ----------------------                            ----------------------
 !      Name          Value   Derivative information (Atomic Units)     !
 ------------------------------------------------------------------------
 !       R2          1.0926   estimate D2E/DX2                          !
 !       R3          1.0911   estimate D2E/DX2                          !
 !       R4          1.0911   estimate D2E/DX2                          !
 !       R5          1.7918   estimate D2E/DX2                          !
 !       R6          1.2395   estimate D2E/DX2                          !
 !       R7          1.447    estimate D2E/DX2                          !
 !       R8          1.0125   estimate D2E/DX2                          !
 !       R9          1.5754   estimate D2E/DX2                          !
 !       R10         1.0974   estimate D2E/DX2                          !
 !       R11         1.0974   estimate D2E/DX2                          !
 !       R12         1.6899   estimate D2E/DX2                          !
 !       R13         1.233    estimate D2E/DX2                          !
 !       R14         1.4392   estimate D2E/DX2                          !
 !       R15         1.0143   estimate D2E/DX2                          !
 !       R16         1.6683   estimate D2E/DX2                          !
 !       R17         1.0908   estimate D2E/DX2                          !
 !       R18         1.0913   estimate D2E/DX2                          !
 !       R19         1.0908   estimate D2E/DX2                          !
 !       A3        112.9614   estimate D2E/DX2                          !
 !       A4        112.9613   estimate D2E/DX2                          !
 !       A5        113.6609   estimate D2E/DX2                          !
 !       A6        110.1096   estimate D2E/DX2                          !
 !       A7        132.7415   estimate D2E/DX2                          !
 !       A8        120.6621   estimate D2E/DX2                          !
 !       A9        122.9478   estimate D2E/DX2                          !
 !       A10       106.3023   estimate D2E/DX2                          !
 !       A11       106.3023   estimate D2E/DX2                          !
 !       A12       122.3278   estimate D2E/DX2                          !
 !       A13       118.6329   estimate D2E/DX2                          !
 !       A14       118.8457   estimate D2E/DX2                          !
 !       A15       114.1604   estimate D2E/DX2                          !
 !       A16       136.311    estimate D2E/DX2                          !
 !       A17       105.5366   estimate D2E/DX2                          !
 !       A18       106.5117   estimate D2E/DX2                          !
 !       A19       105.5364   estimate D2E/DX2                          !
 !       D4       -128.7821   estimate D2E/DX2                          !
 !       D5        115.609    estimate D2E/DX2                          !
 !       D6       -179.9998   estimate D2E/DX2                          !
 !       D7        180.0      estimate D2E/DX2                          !
 !       D8         -0.0002   estimate D2E/DX2                          !
 !       D9       -179.9997   estimate D2E/DX2                          !
 !       D10        57.2781   estimate D2E/DX2                          !
 !       D11      -114.5558   estimate D2E/DX2                          !
 !       D12       122.722    estimate D2E/DX2                          !
 !       D13        -0.0003   estimate D2E/DX2                          !
 !       D14      -179.9999   estimate D2E/DX2                          !
 !       D15        -0.0002   estimate D2E/DX2                          !
 !       D16       180.0      estimate D2E/DX2                          !
 !       D17      -119.6673   estimate D2E/DX2                          !
 !       D18       119.669    estimate D2E/DX2                          !
 !       D19      -120.6621   estimate D2E/DX2                          !
 ------------------------------------------------------------------------
 Trust Radius=3.00D-01 FncErr=1.00D-07 GrdErr=1.00D-07
 Number of steps in this run=      2 maximum allowed number of steps=      2.
 GradGradGradGradGradGradGradGradGradGradGradGradGradGradGradGradGradGrad

 Leave Link  103 at Tue Sep 16 15:20:10 2025, MaxMem=    33554432 cpu:         0.3
 (Enter /nexus/posix0/bmm/home/sucerqdl/sw/g09/l202.exe)
                          Input orientation:                          
 ---------------------------------------------------------------------
 Center     Atomic      Atomic             Coordinates (Angstroms)
 Number     Number       Type             X           Y           Z
 ---------------------------------------------------------------------
      1          6           0        0.000000    0.000000    0.000000
      2          1           0        0.000000    0.000000    1.092589
      3          1           0        1.004687    0.000000   -0.425666
      4          1           0       -0.629296    0.783189   -0.425664
      5          6           0       -0.709355   -1.479945   -0.719085
      6          8           0       -0.676169   -1.410714   -1.956180
      7          7           0       -1.282489   -2.675681   -0.139835
      8          1           0       -1.336308   -2.787967    0.864938
      9          6           0       -1.850611   -3.860975   -1.008326
     10          1           0       -1.026935   -4.192713   -1.653188
     11          1           0       -2.625122   -3.426679   -1.653198
     12          6           0       -2.516739   -5.250722   -0.315137
     13          8           0       -2.557766   -5.336318    0.914200
     14          7           0       -3.013970   -6.288100   -1.180022
     15          1           0       -2.917024   -6.085836   -2.169165
     16          6           0       -3.730035   -7.782041   -0.983868
     17          1           0       -3.058440   -8.493510   -1.466064
     18          1           0       -3.810018   -7.948844    0.091659
     19          1           0       -4.705286   -7.704157   -1.466114
 ---------------------------------------------------------------------
                    Distance matrix (angstroms):
                    1          2          3          4          5
     1  C    0.000000
     2  H    1.092589   0.000000
     3  H    1.091141   1.820575   0.000000
     4  H    1.091141   1.820574   1.811984   0.000000
     5  C    1.791789   2.444501   2.283479   2.283480   0.000000
     6  O    2.504787   3.426706   2.675419   2.675423   1.239475
     7  N    2.970454   3.212929   3.531592   3.531591   1.446995
     8  H    3.210389   3.100049   3.862471   3.862470   2.147817
     9  C    4.398705   4.769249   4.837287   4.837288   2.656205
    10  H    4.622387   5.115929   4.818001   5.140479   2.886609
    11  H    4.622386   5.115930   5.140474   4.818002   2.886607
    12  C    5.831241   5.990471   6.323191   6.323190   4.201019
    13  O    5.987840   5.920328   6.554587   6.554586   4.577756
    14  N    7.072246   7.334096   7.500590   7.500589   5.351827
    15  H    7.088844   7.495697   7.446947   7.446946   5.309498
    16  C    8.685696   8.876092   9.126300   9.126299   6.993642
    17  H    9.145661   9.382989   9.472653   9.645741   7.434129
    18  H    8.815257   8.871427   9.307692   9.307686   7.219284
    19  H    9.145668   9.383001   9.645743   9.472659   7.434133
                    6          7          8          9         10
     6  O    0.000000
     7  N    2.294967   0.000000
     8  H    3.208008   1.012459   0.000000
     9  C    2.877763   1.575424   2.219228   0.000000
    10  H    2.820347   2.157992   2.899996   1.097424   0.000000
    11  H    2.820342   2.157992   2.900001   1.097424   1.772289
    12  C    4.563593   2.860933   2.975089   1.689862   2.264791
    13  O    5.214389   3.133100   2.826390   2.524443   3.200431
    14  N    5.464121   4.138790   4.387178   2.697001   2.926233
    15  H    5.188792   4.291742   4.751882   2.726682   2.724443
    16  C    7.131991   5.725189   5.838560   4.348286   4.542909
    17  H    7.488753   6.225755   6.399416   4.809237   4.760135
    18  H    7.534043   5.852200   5.775106   4.664753   4.989847
    19  H    7.488750   6.225763   6.399433   4.809240   5.088763
                   11         12         13         14         15
    11  H    0.000000
    12  C    2.264793   0.000000
    13  O    3.200436   1.232996   0.000000
    14  N    2.926231   1.439241   2.345159   0.000000
    15  H    2.724435   2.072453   3.193428   1.014255   0.000000
    16  C    4.542909   2.885631   3.310353   1.668259   2.223292
    17  H    5.088769   3.483353   3.985498   2.224328   2.512219
    18  H    4.989838   3.019589   3.011644   2.238065   3.062607
    19  H    4.760137   3.483365   3.985523   2.224324   2.512195
                   16         17         18         19
    16  C    0.000000
    17  H    1.090753   0.000000
    18  H    1.091320   1.813293   0.000000
    19  H    1.090753   1.826247   1.813293   0.000000
 Stoichiometry    C5H10N2O2
 Framework group  C1[X(C5H10N2O2)]
 Deg. of freedom    51
 Full point group                 C1      NOp   1
 Largest Abelian subgroup         C1      NOp   1
 Largest concise Abelian subgroup C1      NOp   1
                         Standard orientation:                         
 ---------------------------------------------------------------------
 Center     Atomic      Atomic             Coordinates (Angstroms)
 Number     Number       Type             X           Y           Z
 ---------------------------------------------------------------------
      1          6           0        4.234206    0.561367   -0.000002
      2          1           0        4.247663    1.653873   -0.000001
      3          1           0        4.663185    0.130384    0.905989
      4          1           0        4.663183    0.130388   -0.905995
      5          6           0        2.584309   -0.137450    0.000000
      6          8           0        2.645841   -1.375397    0.000001
      7          7           0        1.265548    0.458087   -0.000001
      8          1           0        1.153415    1.464318    0.000001
      9          6           0       -0.059463   -0.394149    0.000003
     10          1           0       -0.010543   -1.039663    0.886150
     11          1           0       -0.010542   -1.039672   -0.886139
     12          6           0       -1.591952    0.317968    0.000000
     13          8           0       -1.671725    1.548381    0.000002
     14          7           0       -2.752904   -0.532682   -0.000002
     15          1           0       -2.540808   -1.524513   -0.000005
     16          6           0       -4.407050   -0.316139   -0.000001
     17          1           0       -4.764257   -0.793973    0.913136
     18          1           0       -4.578777    0.761585   -0.000029
     19          1           0       -4.764260   -0.794021   -0.913111
 ---------------------------------------------------------------------
 Rotational constants (GHZ):      5.0697621      0.5125471      0.4697425
 Leave Link  202 at Tue Sep 16 15:20:10 2025, MaxMem=    33554432 cpu:         0.1
 (Enter /nexus/posix0/bmm/home/sucerqdl/sw/g09/l301.exe)
 Standard basis: 6-31+G (6D, 7F)
 Ernie: Thresh=  0.10000D-02 Tol=  0.10000D-05 Strict=F.
 There are   137 symmetry adapted cartesian basis functions of A   symmetry.
 There are   137 symmetry adapted basis functions of A   symmetry.
   137 basis functions,   274 primitive gaussians,   137 cartesian basis functions
    35 alpha electrons       35 beta electrons
       nuclear repulsion energy       412.4564649975 Hartrees.
 IExCor= 3226 DFT=T Ex+Corr=BMK ExCW=0 ScaHFX=  0.420000
 ScaDFX=  1.000000  1.000000  1.000000  1.000000 ScalE2=  1.000000  1.000000
 IRadAn=      0 IRanWt=     -1 IRanGd=            0 ICorTp=0 IEmpDi=  4
 NAtoms=   19 NActive=   19 NUniq=   19 SFac= 1.00D+00 NAtFMM=   60 NAOKFM=F Big=F
 Integral buffers will be    131072 words long.
 Raffenetti 2 integral format.
 Two-electron integral symmetry is turned on.
 Leave Link  301 at Tue Sep 16 15:20:10 2025, MaxMem=    33554432 cpu:         0.7
 (Enter /nexus/posix0/bmm/home/sucerqdl/sw/g09/l302.exe)
 NPDir=0 NMtPBC=     1 NCelOv=     1 NCel=       1 NClECP=     1 NCelD=      1
         NCelK=      1 NCelE2=     1 NClLst=     1 CellRange=     0.0.
 One-electron integrals computed using PRISM.
 PrsmSu:  requested number of processors reduced to:   9 ShMem   1 Linda.
 NBasis=   137 RedAO= T EigKep=  4.07D-05  NBF=   137
 NBsUse=   137 1.00D-06 EigRej= -1.00D+00 NBFU=   137
 Precomputing XC quadrature grid using
 IXCGrd= 4 IRadAn=           0 IRanWt=          -1 IRanGd=           0 AccXCQ= 0.00D+00.
 Generated NRdTot=       0 NPtTot=           0 NUsed=           0 NTot=          32
 NSgBfM=   136   136   136   136   136 MxSgAt=    19 MxSgA2=    19.
 Leave Link  302 at Tue Sep 16 15:20:10 2025, MaxMem=    33554432 cpu:         2.1
 (Enter /nexus/posix0/bmm/home/sucerqdl/sw/g09/l303.exe)
 DipDrv:  MaxL=1.
 Leave Link  303 at Tue Sep 16 15:20:10 2025, MaxMem=    33554432 cpu:         0.4
 (Enter /nexus/posix0/bmm/home/sucerqdl/sw/g09/l401.exe)
 ExpMin= 4.38D-02 ExpMax= 5.48D+03 ExpMxC= 8.25D+02 IAcc=2 IRadAn=         4 AccDes= 0.00D+00
 Harris functional with IExCor= 1009 and IRadAn=       4 diagonalized for initial guess.
 HarFok:  IExCor= 1009 AccDes= 0.00D+00 IRadAn=         4 IDoV= 1 UseB2=F ITyADJ=14
 ICtDFT=  3500011 ScaDFX=  1.000000  1.000000  1.000000  1.000000
 FoFCou: FMM=F IPFlag=           0 FMFlag=      100000 FMFlg1=           0
         NFxFlg=           0 DoJE=T BraDBF=F KetDBF=T FulRan=T
         wScrn=  0.000000 ICntrl=     500 IOpCl=  0 I1Cent=   200000004 NGrid=           0
         NMat0=    1 NMatS0=      1 NMatT0=    0 NMatD0=    1 NMtDS0=    0 NMtDT0=    0
 Petite list used in FoFCou.
 Harris En= -455.905692750539    
 JPrj=0 DoOrth=F DoCkMO=F.
 Leave Link  401 at Tue Sep 16 15:20:10 2025, MaxMem=    33554432 cpu:         3.6
 (Enter /nexus/posix0/bmm/home/sucerqdl/sw/g09/l502.exe)
 Closed shell SCF:
 Using DIIS extrapolation, IDIIS=  1040.
 Integral symmetry usage will be decided dynamically.
 IVT=       78102 IEndB=       78102 NGot=    33554432 MDV=    33511877
 LenX=    33511877 LenY=    33492667
 Requested convergence on RMS density matrix=1.00D-08 within 128 cycles.
 Requested convergence on MAX density matrix=1.00D-06.
 Requested convergence on             energy=1.00D-06.
 No special actions if energy rises.
 Fock matrices will be formed incrementally for  20 cycles.

 Cycle   1  Pass 1  IDiag  1:
 FoFJK:  IHMeth= 1 ICntrl=       0 DoSepK=F KAlg= 0 I1Cent=   0 FoldK=F
 IRaf= 880000000 NMat=   1 IRICut=       1 DoRegI=T DoRafI=F ISym2E= 0.
 FoFCou: FMM=F IPFlag=           0 FMFlag=      100000 FMFlg1=           0
         NFxFlg=           0 DoJE=F BraDBF=F KetDBF=F FulRan=T
         wScrn=  0.000000 ICntrl=       0 IOpCl=  0 I1Cent=           0 NGrid=           0
         NMat0=    1 NMatS0=      1 NMatT0=    0 NMatD0=    1 NMtDS0=    0 NMtDT0=    0
 Symmetry not used in FoFCou.
 E= -455.809914446538    
 DIIS: error= 3.94D-02 at cycle   1 NSaved=   1.
 NSaved= 1 IEnMin= 1 EnMin= -455.809914446538     IErMin= 1 ErrMin= 3.94D-02
 ErrMax= 3.94D-02  0.00D+00 EMaxC= 1.00D-01 BMatC= 2.73D-01 BMatP= 2.73D-01
 IDIUse=3 WtCom= 6.06D-01 WtEn= 3.94D-01
 Coeff-Com:  0.100D+01
 Coeff-En:   0.100D+01
 Coeff:      0.100D+01
 Gap=     0.329 Goal=   None    Shift=    0.000
 GapD=    0.329 DampG=1.000 DampE=0.500 DampFc=0.5000 IDamp=-1.
 Damping current iteration by 5.00D-01
 RMSDP=2.51D-02 MaxDP=1.19D+00              OVMax= 2.87D-01

 Cycle   2  Pass 1  IDiag  1:
 RMSU=  1.11D-02    CP:  1.14D+00
 E= -455.861412959361     Delta-E=       -0.051498512823 Rises=F Damp=T
 DIIS: error= 2.17D-02 at cycle   2 NSaved=   2.
 NSaved= 2 IEnMin= 2 EnMin= -455.861412959361     IErMin= 2 ErrMin= 2.17D-02
 ErrMax= 2.17D-02  0.00D+00 EMaxC= 1.00D-01 BMatC= 5.06D-02 BMatP= 2.73D-01
 IDIUse=3 WtCom= 7.83D-01 WtEn= 2.17D-01
 Coeff-Com:  0.261D+00 0.739D+00
 Coeff-En:   0.392D+00 0.608D+00
 Coeff:      0.289D+00 0.711D+00
 Gap=     0.319 Goal=   None    Shift=    0.000
 RMSDP=1.06D-02 MaxDP=6.19D-01 DE=-5.15D-02 OVMax= 1.54D-01

 Cycle   3  Pass 1  IDiag  1:
 RMSU=  4.62D-03    CP:  9.92D-01  3.50D-01
 E= -456.036492244773     Delta-E=       -0.175079285412 Rises=F Damp=F
 DIIS: error= 1.28D-02 at cycle   3 NSaved=   3.
 NSaved= 3 IEnMin= 3 EnMin= -456.036492244773     IErMin= 3 ErrMin= 1.28D-02
 ErrMax= 1.28D-02  0.00D+00 EMaxC= 1.00D-01 BMatC= 1.57D-02 BMatP= 5.06D-02
 IDIUse=3 WtCom= 8.72D-01 WtEn= 1.28D-01
 Coeff-Com:  0.106D+00 0.363D+00 0.531D+00
 Coeff-En:   0.000D+00 0.000D+00 0.100D+01
 Coeff:      0.923D-01 0.316D+00 0.591D+00
 Gap=     0.322 Goal=   None    Shift=    0.000
 RMSDP=1.47D-03 MaxDP=2.56D-02 DE=-1.75D-01 OVMax= 4.18D-02

 Cycle   4  Pass 1  IDiag  1:
 RMSU=  1.28D-03    CP:  1.00D+00  4.04D-01  9.76D-01
 E= -456.049618465722     Delta-E=       -0.013126220949 Rises=F Damp=F
 DIIS: error= 4.69D-03 at cycle   4 NSaved=   4.
 NSaved= 4 IEnMin= 4 EnMin= -456.049618465722     IErMin= 4 ErrMin= 4.69D-03
 ErrMax= 4.69D-03  0.00D+00 EMaxC= 1.00D-01 BMatC= 2.44D-03 BMatP= 1.57D-02
 IDIUse=3 WtCom= 9.53D-01 WtEn= 4.69D-02
 Coeff-Com:  0.225D-01 0.430D-01 0.286D+00 0.648D+00
 Coeff-En:   0.000D+00 0.000D+00 0.764D-01 0.924D+00
 Coeff:      0.214D-01 0.410D-01 0.276D+00 0.661D+00
 Gap=     0.314 Goal=   None    Shift=    0.000
 RMSDP=6.01D-04 MaxDP=1.96D-02 DE=-1.31D-02 OVMax= 1.21D-02

 Cycle   5  Pass 1  IDiag  1:
 RMSU=  3.10D-04    CP:  9.95D-01  3.71D-01  1.00D+00  8.05D-01
 E= -456.051541141924     Delta-E=       -0.001922676202 Rises=F Damp=F
 DIIS: error= 1.24D-03 at cycle   5 NSaved=   5.
 NSaved= 5 IEnMin= 5 EnMin= -456.051541141924     IErMin= 5 ErrMin= 1.24D-03
 ErrMax= 1.24D-03  0.00D+00 EMaxC= 1.00D-01 BMatC= 1.83D-04 BMatP= 2.44D-03
 IDIUse=3 WtCom= 9.88D-01 WtEn= 1.24D-02
 Coeff-Com:  0.350D-02-0.150D-01 0.888D-01 0.330D+00 0.592D+00
 Coeff-En:   0.000D+00 0.000D+00 0.000D+00 0.000D+00 0.100D+01
 Coeff:      0.345D-02-0.148D-01 0.877D-01 0.326D+00 0.597D+00
 Gap=     0.315 Goal=   None    Shift=    0.000
 RMSDP=2.34D-04 MaxDP=1.26D-02 DE=-1.92D-03 OVMax= 3.86D-03

 Cycle   6  Pass 1  IDiag  1:
 RMSU=  1.04D-04    CP:  9.92D-01  3.60D-01  1.02D+00  8.37D-01  7.70D-01
 E= -456.051713739513     Delta-E=       -0.000172597589 Rises=F Damp=F
 DIIS: error= 2.88D-04 at cycle   6 NSaved=   6.
 NSaved= 6 IEnMin= 6 EnMin= -456.051713739513     IErMin= 6 ErrMin= 2.88D-04
 ErrMax= 2.88D-04  0.00D+00 EMaxC= 1.00D-01 BMatC= 1.13D-05 BMatP= 1.83D-04
 IDIUse=3 WtCom= 9.97D-01 WtEn= 2.88D-03
 Coeff-Com:  0.174D-02-0.101D-01 0.277D-01 0.105D+00 0.262D+00 0.613D+00
 Coeff-En:   0.000D+00 0.000D+00 0.000D+00 0.000D+00 0.000D+00 0.100D+01
 Coeff:      0.173D-02-0.101D-01 0.276D-01 0.105D+00 0.261D+00 0.614D+00
 Gap=     0.314 Goal=   None    Shift=    0.000
 RMSDP=7.78D-05 MaxDP=3.91D-03 DE=-1.73D-04 OVMax= 5.76D-04

 Cycle   7  Pass 1  IDiag  1:
 RMSU=  3.11D-05    CP:  9.91D-01  3.55D-01  1.02D+00  8.40D-01  8.06D-01
                    CP:  1.01D+00
 E= -456.051723204056     Delta-E=       -0.000009464543 Rises=F Damp=F
 DIIS: error= 1.02D-04 at cycle   7 NSaved=   7.
 NSaved= 7 IEnMin= 7 EnMin= -456.051723204056     IErMin= 7 ErrMin= 1.02D-04
 ErrMax= 1.02D-04  0.00D+00 EMaxC= 1.00D-01 BMatC= 1.55D-06 BMatP= 1.13D-05
 IDIUse=3 WtCom= 9.99D-01 WtEn= 1.02D-03
 Coeff-Com:  0.775D-03-0.219D-02-0.373D-02-0.216D-01 0.236D-02 0.236D+00
 Coeff-Com:  0.788D+00
 Coeff-En:   0.000D+00 0.000D+00 0.000D+00 0.000D+00 0.000D+00 0.000D+00
 Coeff-En:   0.100D+01
 Coeff:      0.774D-03-0.219D-02-0.372D-02-0.216D-01 0.236D-02 0.236D+00
 Coeff:      0.789D+00
 Gap=     0.314 Goal=   None    Shift=    0.000
 RMSDP=3.09D-05 MaxDP=9.73D-04 DE=-9.46D-06 OVMax= 4.72D-04

 Cycle   8  Pass 1  IDiag  1:
 RMSU=  1.57D-05    CP:  9.91D-01  3.53D-01  1.02D+00  8.38D-01  8.34D-01
                    CP:  1.04D+00  9.76D-01
 E= -456.051724493160     Delta-E=       -0.000001289104 Rises=F Damp=F
 DIIS: error= 6.59D-05 at cycle   8 NSaved=   8.
 NSaved= 8 IEnMin= 8 EnMin= -456.051724493160     IErMin= 8 ErrMin= 6.59D-05
 ErrMax= 6.59D-05  0.00D+00 EMaxC= 1.00D-01 BMatC= 3.06D-07 BMatP= 1.55D-06
 IDIUse=1 WtCom= 1.00D+00 WtEn= 0.00D+00
 Coeff-Com:  0.355D-03-0.466D-03-0.482D-02-0.239D-01-0.241D-01 0.771D-01
 Coeff-Com:  0.487D+00 0.489D+00
 Coeff:      0.355D-03-0.466D-03-0.482D-02-0.239D-01-0.241D-01 0.771D-01
 Coeff:      0.487D+00 0.489D+00
 Gap=     0.314 Goal=   None    Shift=    0.000
 RMSDP=1.50D-05 MaxDP=6.27D-04 DE=-1.29D-06 OVMax= 1.91D-04

 Cycle   9  Pass 1  IDiag  1:
 RMSU=  7.65D-06    CP:  9.90D-01  3.53D-01  1.02D+00  8.38D-01  8.43D-01
                    CP:  1.04D+00  1.10D+00  9.84D-01
 E= -456.051724734446     Delta-E=       -0.000000241286 Rises=F Damp=F
 DIIS: error= 1.45D-05 at cycle   9 NSaved=   9.
 NSaved= 9 IEnMin= 9 EnMin= -456.051724734446     IErMin= 9 ErrMin= 1.45D-05
 ErrMax= 1.45D-05  0.00D+00 EMaxC= 1.00D-01 BMatC= 2.23D-08 BMatP= 3.06D-07
 IDIUse=1 WtCom= 1.00D+00 WtEn= 0.00D+00
 Coeff-Com: -0.198D-04 0.227D-03-0.755D-03-0.396D-02-0.890D-02-0.298D-01
 Coeff-Com:  0.203D-01 0.220D+00 0.803D+00
 Coeff:     -0.198D-04 0.227D-03-0.755D-03-0.396D-02-0.890D-02-0.298D-01
 Coeff:      0.203D-01 0.220D+00 0.803D+00
 Gap=     0.314 Goal=   None    Shift=    0.000
 RMSDP=2.75D-06 MaxDP=5.36D-05 DE=-2.41D-07 OVMax= 6.68D-05

 Cycle  10  Pass 1  IDiag  1:
 RMSU=  1.63D-06    CP:  9.90D-01  3.52D-01  1.02D+00  8.38D-01  8.44D-01
                    CP:  1.05D+00  1.10D+00  1.04D+00  8.51D-01
 E= -456.051724757689     Delta-E=       -0.000000023243 Rises=F Damp=F
 DIIS: error= 3.15D-06 at cycle  10 NSaved=  10.
 NSaved=10 IEnMin=10 EnMin= -456.051724757689     IErMin=10 ErrMin= 3.15D-06
 ErrMax= 3.15D-06  0.00D+00 EMaxC= 1.00D-01 BMatC= 1.33D-09 BMatP= 2.23D-08
 IDIUse=1 WtCom= 1.00D+00 WtEn= 0.00D+00
 Coeff-Com: -0.262D-04 0.127D-03-0.789D-04-0.607D-03-0.274D-02-0.172D-01
 Coeff-Com: -0.125D-01 0.694D-01 0.360D+00 0.604D+00
 Coeff:     -0.262D-04 0.127D-03-0.789D-04-0.607D-03-0.274D-02-0.172D-01
 Coeff:     -0.125D-01 0.694D-01 0.360D+00 0.604D+00
 Gap=     0.314 Goal=   None    Shift=    0.000
 RMSDP=7.60D-07 MaxDP=2.49D-05 DE=-2.32D-08 OVMax= 9.20D-06

 Cycle  11  Pass 1  IDiag  1:
 RMSU=  5.20D-07    CP:  9.90D-01  3.52D-01  1.02D+00  8.38D-01  8.45D-01
                    CP:  1.05D+00  1.11D+00  1.04D+00  8.93D-01  9.49D-01
 E= -456.051724759083     Delta-E=       -0.000000001394 Rises=F Damp=F
 DIIS: error= 9.16D-07 at cycle  11 NSaved=  11.
 NSaved=11 IEnMin=11 EnMin= -456.051724759083     IErMin=11 ErrMin= 9.16D-07
 ErrMax= 9.16D-07  0.00D+00 EMaxC= 1.00D-01 BMatC= 9.50D-11 BMatP= 1.33D-09
 IDIUse=1 WtCom= 1.00D+00 WtEn= 0.00D+00
 Coeff-Com: -0.761D-05 0.172D-04 0.748D-04 0.279D-03 0.229D-03-0.203D-02
 Coeff-Com: -0.651D-02-0.771D-02 0.185D-01 0.211D+00 0.787D+00
 Coeff:     -0.761D-05 0.172D-04 0.748D-04 0.279D-03 0.229D-03-0.203D-02
 Coeff:     -0.651D-02-0.771D-02 0.185D-01 0.211D+00 0.787D+00
 Gap=     0.314 Goal=   None    Shift=    0.000
 RMSDP=2.24D-07 MaxDP=8.19D-06 DE=-1.39D-09 OVMax= 4.78D-06

 Cycle  12  Pass 1  IDiag  1:
 RMSU=  1.34D-07    CP:  9.90D-01  3.52D-01  1.02D+00  8.38D-01  8.45D-01
                    CP:  1.05D+00  1.11D+00  1.04D+00  9.04D-01  9.98D-01
                    CP:  9.15D-01
 E= -456.051724759185     Delta-E=       -0.000000000103 Rises=F Damp=F
 DIIS: error= 2.48D-07 at cycle  12 NSaved=  12.
 NSaved=12 IEnMin=12 EnMin= -456.051724759185     IErMin=12 ErrMin= 2.48D-07
 ErrMax= 2.48D-07  0.00D+00 EMaxC= 1.00D-01 BMatC= 1.46D-11 BMatP= 9.50D-11
 IDIUse=1 WtCom= 1.00D+00 WtEn= 0.00D+00
 Coeff-Com: -0.226D-05 0.199D-05 0.407D-04 0.158D-03 0.263D-03 0.681D-04
 Coeff-Com: -0.259D-02-0.760D-02-0.137D-01 0.674D-01 0.387D+00 0.568D+00
 Coeff:     -0.226D-05 0.199D-05 0.407D-04 0.158D-03 0.263D-03 0.681D-04
 Coeff:     -0.259D-02-0.760D-02-0.137D-01 0.674D-01 0.387D+00 0.568D+00
 Gap=     0.314 Goal=   None    Shift=    0.000
 RMSDP=5.11D-08 MaxDP=1.63D-06 DE=-1.03D-10 OVMax= 7.02D-07

 Cycle  13  Pass 1  IDiag  1:
 RMSU=  3.28D-08    CP:  9.90D-01  3.52D-01  1.02D+00  8.38D-01  8.45D-01
                    CP:  1.05D+00  1.11D+00  1.04D+00  9.05D-01  1.01D+00
                    CP:  9.24D-01  9.48D-01
 E= -456.051724759202     Delta-E=       -0.000000000017 Rises=F Damp=F
 DIIS: error= 6.38D-08 at cycle  13 NSaved=  13.
 NSaved=13 IEnMin=13 EnMin= -456.051724759202     IErMin=13 ErrMin= 6.38D-08
 ErrMax= 6.38D-08  0.00D+00 EMaxC= 1.00D-01 BMatC= 8.92D-13 BMatP= 1.46D-11
 IDIUse=1 WtCom= 1.00D+00 WtEn= 0.00D+00
 Coeff-Com:  0.192D-06-0.144D-05 0.701D-05 0.223D-04 0.746D-04 0.309D-03
 Coeff-Com: -0.215D-03-0.151D-02-0.767D-02-0.359D-02 0.353D-01 0.204D+00
 Coeff-Com:  0.774D+00
 Coeff:      0.192D-06-0.144D-05 0.701D-05 0.223D-04 0.746D-04 0.309D-03
 Coeff:     -0.215D-03-0.151D-02-0.767D-02-0.359D-02 0.353D-01 0.204D+00
 Coeff:      0.774D+00
 Gap=     0.314 Goal=   None    Shift=    0.000
 RMSDP=2.77D-08 MaxDP=9.86D-07 DE=-1.66D-11 OVMax= 2.26D-07

 Cycle  14  Pass 1  IDiag  1:
 RMSU=  1.29D-08    CP:  9.90D-01  3.52D-01  1.02D+00  8.38D-01  8.45D-01
                    CP:  1.05D+00  1.11D+00  1.04D+00  9.04D-01  1.01D+00
                    CP:  9.31D-01  9.75D-01  8.58D-01
 E= -456.051724759200     Delta-E=        0.000000000003 Rises=F Damp=F
 DIIS: error= 1.13D-08 at cycle  14 NSaved=  14.
 NSaved=14 IEnMin=13 EnMin= -456.051724759202     IErMin=14 ErrMin= 1.13D-08
 ErrMax= 1.13D-08  0.00D+00 EMaxC= 1.00D-01 BMatC= 2.73D-14 BMatP= 8.92D-13
 IDIUse=1 WtCom= 1.00D+00 WtEn= 0.00D+00
 Coeff-Com:  0.135D-06-0.412D-06 0.221D-06-0.139D-05 0.814D-05 0.718D-04
 Coeff-Com:  0.504D-04-0.115D-03-0.120D-02-0.362D-02-0.744D-02 0.251D-01
 Coeff-Com:  0.190D+00 0.797D+00
 Coeff:      0.135D-06-0.412D-06 0.221D-06-0.139D-05 0.814D-05 0.718D-04
 Coeff:      0.504D-04-0.115D-03-0.120D-02-0.362D-02-0.744D-02 0.251D-01
 Coeff:      0.190D+00 0.797D+00
 Gap=     0.314 Goal=   None    Shift=    0.000
 RMSDP=3.57D-09 MaxDP=9.03D-08 DE= 2.50D-12 OVMax= 5.15D-08

 SCF Done:  E(RBMK) =  -456.051724759     A.U. after   14 cycles
            NFock= 14  Conv=0.36D-08     -V/T= 2.0085
 KE= 4.522253242182D+02 PE=-1.889218515889D+03 EE= 5.684850019138D+02
 Leave Link  502 at Tue Sep 16 15:20:16 2025, MaxMem=    33554432 cpu:        94.6
 (Enter /nexus/posix0/bmm/home/sucerqdl/sw/g09/l601.exe)
 Copying SCF densities to generalized density rwf, IOpCl= 0 IROHF=0.

 **********************************************************************

            Population analysis using the SCF density.

 **********************************************************************

 Orbital symmetries:
       Occupied  (A) (A) (A) (A) (A) (A) (A) (A) (A) (A) (A) (A)
                 (A) (A) (A) (A) (A) (A) (A) (A) (A) (A) (A) (A)
                 (A) (A) (A) (A) (A) (A) (A) (A) (A) (A) (A)
       Virtual   (A) (A) (A) (A) (A) (A) (A) (A) (A) (A) (A) (A)
                 (A) (A) (A) (A) (A) (A) (A) (A) (A) (A) (A) (A)
                 (A) (A) (A) (A) (A) (A) (A) (A) (A) (A) (A) (A)
                 (A) (A) (A) (A) (A) (A) (A) (A) (A) (A) (A) (A)
                 (A) (A) (A) (A) (A) (A) (A) (A) (A) (A) (A) (A)
                 (A) (A) (A) (A) (A) (A) (A) (A) (A) (A) (A) (A)
                 (A) (A) (A) (A) (A) (A) (A) (A) (A) (A) (A) (A)
                 (A) (A) (A) (A) (A) (A) (A) (A) (A) (A) (A) (A)
                 (A) (A) (A) (A) (A) (A)
 The electronic state is 1-A.
 Alpha  occ. eigenvalues --  -19.54039 -19.52571 -14.72497 -14.71854 -10.63315
 Alpha  occ. eigenvalues --  -10.61934 -10.55084 -10.54511 -10.50393  -1.15071
 Alpha  occ. eigenvalues --   -1.13851  -0.97803  -0.97046  -0.80681  -0.78477
 Alpha  occ. eigenvalues --   -0.76446  -0.63665  -0.62986  -0.57040  -0.52129
 Alpha  occ. eigenvalues --   -0.51726  -0.50871  -0.50460  -0.48690  -0.48268
 Alpha  occ. eigenvalues --   -0.48047  -0.46025  -0.44187  -0.44116  -0.42623
 Alpha  occ. eigenvalues --   -0.41342  -0.31173  -0.30688  -0.29405  -0.29318
 Alpha virt. eigenvalues --    0.02120   0.03372   0.03396   0.03971   0.04302
 Alpha virt. eigenvalues --    0.06635   0.07138   0.07418   0.08041   0.08566
 Alpha virt. eigenvalues --    0.09111   0.10140   0.10998   0.11629   0.11859
 Alpha virt. eigenvalues --    0.12406   0.13057   0.13622   0.15365   0.16052
 Alpha virt. eigenvalues --    0.16390   0.17327   0.18366   0.19443   0.20689
 Alpha virt. eigenvalues --    0.20834   0.22189   0.22559   0.22991   0.23748
 Alpha virt. eigenvalues --    0.24073   0.24952   0.26839   0.27272   0.27668
 Alpha virt. eigenvalues --    0.27833   0.29032   0.29698   0.31099   0.31571
 Alpha virt. eigenvalues --    0.31954   0.33292   0.34452   0.36031   0.36312
 Alpha virt. eigenvalues --    0.36422   0.37020   0.38859   0.40146   0.40722
 Alpha virt. eigenvalues --    0.42801   0.44884   0.46278   0.47099   0.52430
 Alpha virt. eigenvalues --    0.55871   0.65835   0.68600   0.69458   0.70173
 Alpha virt. eigenvalues --    0.70795   0.73996   0.77273   0.78910   0.80771
 Alpha virt. eigenvalues --    0.82605   0.84600   0.85990   0.91778   0.93673
 Alpha virt. eigenvalues --    0.99001   1.00429   1.01573   1.02165   1.10459
 Alpha virt. eigenvalues --    1.11822   1.11959   1.12764   1.13087   1.15380
 Alpha virt. eigenvalues --    1.16098   1.18767   1.22249   1.22866   1.25167
 Alpha virt. eigenvalues --    1.28648   1.32821   1.33856   1.36272   1.36351
 Alpha virt. eigenvalues --    1.41421   1.43128   1.45752   1.49079   1.51130
 Alpha virt. eigenvalues --    1.53741   1.55747   1.58943   1.66491   1.83022
 Alpha virt. eigenvalues --    2.01080   2.10567
          Condensed to atoms (all electrons):
               1          2          3          4          5          6
     1  C    6.133210   0.335893   0.402275   0.402275  -0.162408  -0.138910
     2  H    0.335893   0.526355  -0.025738  -0.025738  -0.018805   0.006450
     3  H    0.402275  -0.025738   0.467713  -0.022207  -0.046232  -0.002979
     4  H    0.402275  -0.025738  -0.022207   0.467713  -0.046232  -0.002979
     5  C   -0.162408  -0.018805  -0.046232  -0.046232   5.576745   0.423705
     6  O   -0.138910   0.006450  -0.002979  -0.002979   0.423705   8.480483
     7  N   -0.201923   0.004953   0.000348   0.000348  -0.069743  -0.219412
     8  H    0.009905  -0.000247   0.000006   0.000006   0.023305   0.006706
     9  C   -0.126258   0.001010  -0.003138  -0.003138  -0.658274  -0.041575
    10  H   -0.001561   0.000000   0.000007  -0.000002   0.001036   0.000891
    11  H   -0.001561   0.000000  -0.000002   0.000007   0.001036   0.000891
    12  C    0.047184  -0.000163  -0.000240  -0.000240   0.340165   0.013568
    13  O   -0.001470  -0.000001   0.000000   0.000000   0.004657  -0.000174
    14  N   -0.000523   0.000003   0.000000   0.000000   0.006038  -0.001624
    15  H    0.000068   0.000000   0.000000   0.000000   0.001992   0.000069
    16  C    0.000134   0.000000   0.000000   0.000000   0.002893  -0.000093
    17  H    0.000000   0.000000   0.000000   0.000000   0.000023   0.000000
    18  H   -0.000001   0.000000   0.000000   0.000000  -0.000030   0.000000
    19  H    0.000000   0.000000   0.000000   0.000000   0.000023   0.000000
               7          8          9         10         11         12
     1  C   -0.201923   0.009905  -0.126258  -0.001561  -0.001561   0.047184
     2  H    0.004953  -0.000247   0.001010   0.000000   0.000000  -0.000163
     3  H    0.000348   0.000006  -0.003138   0.000007  -0.000002  -0.000240
     4  H    0.000348   0.000006  -0.003138  -0.000002   0.000007  -0.000240
     5  C   -0.069743   0.023305  -0.658274   0.001036   0.001036   0.340165
     6  O   -0.219412   0.006706  -0.041575   0.000891   0.000891   0.013568
     7  N    7.644100   0.257690   0.259950  -0.048513  -0.048513  -0.039031
     8  H    0.257690   0.321749  -0.047662   0.001705   0.001705   0.014853
     9  C    0.259950  -0.047662  10.114932   0.336654   0.336652  -2.923821
    10  H   -0.048513   0.001705   0.336654   0.498332  -0.036831  -0.004201
    11  H   -0.048513   0.001705   0.336652  -0.036831   0.498332  -0.004199
    12  C   -0.039031   0.014853  -2.923821  -0.004201  -0.004199   7.234392
    13  O    0.021013   0.002971   0.029473   0.001080   0.001080   0.244598
    14  N    0.012797   0.001711  -0.673499   0.014497   0.014498   0.491060
    15  H   -0.000022  -0.000003   0.057129  -0.000543  -0.000543  -0.048452
    16  C    0.002434   0.000360  -0.150426   0.002031   0.002031   0.003918
    17  H   -0.000013   0.000000   0.004029   0.000006  -0.000001  -0.002534
    18  H   -0.000010   0.000000  -0.008659  -0.000002  -0.000002  -0.007887
    19  H   -0.000013   0.000000   0.004029  -0.000001   0.000006  -0.002534
              13         14         15         16         17         18
     1  C   -0.001470  -0.000523   0.000068   0.000134   0.000000  -0.000001
     2  H   -0.000001   0.000003   0.000000   0.000000   0.000000   0.000000
     3  H    0.000000   0.000000   0.000000   0.000000   0.000000   0.000000
     4  H    0.000000   0.000000   0.000000   0.000000   0.000000   0.000000
     5  C    0.004657   0.006038   0.001992   0.002893   0.000023  -0.000030
     6  O   -0.000174  -0.001624   0.000069  -0.000093   0.000000   0.000000
     7  N    0.021013   0.012797  -0.000022   0.002434  -0.000013  -0.000010
     8  H    0.002971   0.001711  -0.000003   0.000360   0.000000   0.000000
     9  C    0.029473  -0.673499   0.057129  -0.150426   0.004029  -0.008659
    10  H    0.001080   0.014497  -0.000543   0.002031   0.000006  -0.000002
    11  H    0.001080   0.014498  -0.000543   0.002031  -0.000001  -0.000002
    12  C    0.244598   0.491060  -0.048452   0.003918  -0.002534  -0.007887
    13  O    8.466715  -0.210929   0.009863  -0.023820  -0.000035   0.004700
    14  N   -0.210929   7.573986   0.259077   0.184740  -0.038721  -0.035660
    15  H    0.009863   0.259077   0.399077  -0.028375  -0.000804   0.002156
    16  C   -0.023820   0.184740  -0.028375   5.235682   0.382769   0.403264
    17  H   -0.000035  -0.038721  -0.000804   0.382769   0.497924  -0.022663
    18  H    0.004700  -0.035660   0.002156   0.403264  -0.022663   0.445887
    19  H   -0.000035  -0.038720  -0.000804   0.382768  -0.033032  -0.022663
              19
     1  C    0.000000
     2  H    0.000000
     3  H    0.000000
     4  H    0.000000
     5  C    0.000023
     6  O    0.000000
     7  N   -0.000013
     8  H    0.000000
     9  C    0.004029
    10  H   -0.000001
    11  H    0.000006
    12  C   -0.002534
    13  O   -0.000035
    14  N   -0.038720
    15  H   -0.000804
    16  C    0.382768
    17  H   -0.033032
    18  H   -0.022663
    19  H    0.497925
 Mulliken charges:
               1
     1  C   -0.696331
     2  H    0.196026
     3  H    0.230188
     4  H    0.230188
     5  C    0.620106
     6  O   -0.525016
     7  N   -0.576442
     8  H    0.405240
     9  C   -0.507408
    10  H    0.235414
    11  H    0.235414
    12  C    0.643566
    13  O   -0.549688
    14  N   -0.558732
    15  H    0.350115
    16  C   -0.400311
    17  H    0.213052
    18  H    0.241568
    19  H    0.213051
 Sum of Mulliken charges =   0.00000
 Mulliken charges with hydrogens summed into heavy atoms:
               1
     1  C   -0.039929
     5  C    0.620106
     6  O   -0.525016
     7  N   -0.171202
     9  C   -0.036581
    12  C    0.643566
    13  O   -0.549688
    14  N   -0.208616
    16  C    0.267360
 Electronic spatial extent (au):  <R**2>=           2312.7304
 Charge=              0.0000 electrons
 Dipole moment (field-independent basis, Debye):
    X=             -2.7420    Y=             -0.6595    Z=              0.0000  Tot=              2.8202
 Quadrupole moment (field-independent basis, Debye-Ang):
   XX=            -35.9489   YY=            -61.7038   ZZ=            -55.5394
   XY=             18.7223   XZ=              0.0000   YZ=              0.0000
 Traceless Quadrupole moment (field-independent basis, Debye-Ang):
   XX=             15.1151   YY=            -10.6397   ZZ=             -4.4754
   XY=             18.7223   XZ=              0.0000   YZ=              0.0000
 Octapole moment (field-independent basis, Debye-Ang**2):
  XXX=            -61.9143  YYY=             -1.3777  ZZZ=              0.0001  XYY=             -9.9661
  XXY=              8.7176  XXZ=             -0.0001  XZZ=              0.8206  YZZ=             -2.3707
  YYZ=             -0.0001  XYZ=              0.0000
 Hexadecapole moment (field-independent basis, Debye-Ang**3):
 XXXX=          -2118.3119 YYYY=           -303.5413 ZZZZ=            -75.2837 XXXY=            115.3529
 XXXZ=              0.0001 YYYX=             56.0994 YYYZ=              0.0001 ZZZX=             -0.0003
 ZZZY=              0.0000 XXYY=           -527.6379 XXZZ=           -447.0400 YYZZ=            -61.2697
 XXYZ=              0.0001 YYXZ=              0.0004 ZZXY=             -3.5432
 N-N= 4.124564649975D+02 E-N=-1.889218515714D+03  KE= 4.522253242182D+02
 No NMR shielding tensors so no spin-rotation constants.
 Leave Link  601 at Tue Sep 16 15:20:17 2025, MaxMem=    33554432 cpu:         1.3
 (Enter /nexus/posix0/bmm/home/sucerqdl/sw/g09/l701.exe)
 Compute integral first derivatives.
 ... and contract with generalized density number  0.
 PrsmSu:  requested number of processors reduced to:   9 ShMem   1 Linda.
 Leave Link  701 at Tue Sep 16 15:20:17 2025, MaxMem=    33554432 cpu:         1.3
 (Enter /nexus/posix0/bmm/home/sucerqdl/sw/g09/l702.exe)
 L702 exits ... SP integral derivatives will be done elsewhere.
 Leave Link  702 at Tue Sep 16 15:20:17 2025, MaxMem=    33554432 cpu:         0.3
 (Enter /nexus/posix0/bmm/home/sucerqdl/sw/g09/l703.exe)
 Compute integral first derivatives, UseDBF=F ICtDFT=           0.
 Integral derivatives from FoFJK, PRISM(SPDF).
 Calling FoFJK, ICntrl=      2127 FMM=F ISym2X=0 I1Cent= 0 IOpClX= 0 NMat=1 NMatS=1 NMatT=0.
 FoFJK:  IHMeth= 1 ICntrl=    2127 DoSepK=F KAlg= 0 I1Cent=   0 FoldK=F
 IRaf=         0 NMat=   1 IRICut=       1 DoRegI=T DoRafI=F ISym2E= 0.
 FoFCou: FMM=F IPFlag=           0 FMFlag=      100000 FMFlg1=         800
         NFxFlg=           0 DoJE=F BraDBF=F KetDBF=F FulRan=T
         wScrn=  0.000000 ICntrl=    2127 IOpCl=  0 I1Cent=           0 NGrid=           0
         NMat0=    1 NMatS0=      1 NMatT0=    0 NMatD0=    1 NMtDS0=    0 NMtDT0=    0
 Symmetry not used in FoFCou.
 Leave Link  703 at Tue Sep 16 15:20:17 2025, MaxMem=    33554432 cpu:         6.7
 (Enter /nexus/posix0/bmm/home/sucerqdl/sw/g09/l716.exe)
 Dipole        =-1.07878870D+00-2.59469267D-01-1.14452951D-06
 ***** Axes restored to original set *****
 -------------------------------------------------------------------
 Center     Atomic                   Forces (Hartrees/Bohr)
 Number     Number              X              Y              Z
 -------------------------------------------------------------------
      1        6          -0.032201854   -0.067183257   -0.008492528
      2        1           0.000003332    0.000006752    0.000003127
      3        1           0.000009191    0.000010724    0.000002065
      4        1           0.000002574    0.000013824    0.000001938
      5        6          -0.000010432   -0.000021754   -0.000002128
      6        8          -0.000001836   -0.000003757   -0.000011877
      7        7           0.000002269    0.000004651    0.000009981
      8        1          -0.000000652   -0.000001242   -0.000000614
      9        6          -0.000006913   -0.000014367    0.000010525
     10        1          -0.000001752    0.000000640   -0.000005192
     11        1           0.000001592   -0.000000966   -0.000005145
     12        6           0.000003690    0.000007736   -0.000009403
     13        8          -0.000000486   -0.000001027    0.000008064
     14        7          -0.000007047   -0.000014686    0.000009450
     15        1           0.000002839    0.000005789    0.000001354
     16        6           0.032214354    0.067209522    0.008488214
     17        1          -0.000003338   -0.000008896   -0.000003828
     18        1          -0.000000639   -0.000001452   -0.000000170
     19        1          -0.000004892   -0.000008235   -0.000003832
 -------------------------------------------------------------------
 Cartesian Forces:  Max     0.067209522 RMS     0.014048543
 -----------------------------------------------------------------------------------------------
                       Internal Coordinate Forces (Hartree/Bohr or radian)
  Cent   Atom   N1       Length/X         N2         Alpha/Y        N3         Beta/Z          J
 -----------------------------------------------------------------------------------------------
      1  C 
      2  H        1   0.000003(     1)
      3  H        1   0.000008(     2)      2  -0.000011(    19)
      4  H        1   0.000008(     3)      2  -0.000011(    20)      3   0.000020(    36)     0
      5  C        1  -0.071613(     4)      2   0.000006(    21)      3   0.000000(    37)     0
      6  O        5   0.000012(     5)      1   0.000011(    22)      2   0.000000(    38)     0
      7  N        5  -0.064864(     6)      1  -0.074858(    23)      6   0.000000(    39)     0
      8  H        7   0.000000(     7)      5   0.000003(    24)      1   0.000000(    40)     0
      9  C        7  -0.066831(     8)      5  -0.027981(    25)      8   0.000000(    41)     0
     10  H        9   0.000002(     9)      7   0.000006(    26)      5   0.000000(    42)     0
     11  H        9   0.000002(    10)      7   0.000006(    27)     10   0.000009(    43)     0
     12  C        9  -0.064468(    11)      7  -0.073186(    28)     10   0.000000(    44)     0
     13  O       12   0.000008(    12)      9   0.000001(    29)      7   0.000000(    45)     0
     14  N       12  -0.064651(    13)      9  -0.049139(    30)     13   0.000000(    46)     0
     15  H       14   0.000000(    14)     12  -0.000013(    31)      9   0.000000(    47)     0
     16  C       14  -0.072997(    15)     12  -0.054178(    32)     15   0.000000(    48)     0
     17  H       16   0.000005(    16)     14   0.000016(    33)     12   0.000000(    49)     0
     18  H       16   0.000000(    17)     14   0.000003(    34)     17   0.000000(    50)     0
     19  H       16   0.000005(    18)     14   0.000016(    35)     17   0.000008(    51)     0
 -----------------------------------------------------------------------------------------------
 Internal  Forces:  Max     0.074858127 RMS     0.029558572
 Leave Link  716 at Tue Sep 16 15:20:17 2025, MaxMem=    33554432 cpu:         0.5
 (Enter /nexus/posix0/bmm/home/sucerqdl/sw/g09/l103.exe)

 GradGradGradGradGradGradGradGradGradGradGradGradGradGradGradGradGradGrad
 Berny optimization.
 Search for a local minimum.
 Step number   1 out of a maximum of    2
 All quantities printed in internal units (Hartrees-Bohrs-Radians)
 Second derivative matrix not updated -- first step.
 ITU=  0
     Eigenvalues ---    0.01030   0.01240   0.01291   0.01627   0.02215
     Eigenvalues ---    0.02703   0.04816   0.05106   0.06201   0.08007
     Eigenvalues ---    0.09069   0.09322   0.10462   0.13220   0.14233
     Eigenvalues ---    0.14263   0.14785   0.18501   0.19619   0.19879
     Eigenvalues ---    0.19882   0.22444   0.24337   0.24763   0.25000
     Eigenvalues ---    0.25003   0.25598   0.29176   0.33969   0.33969
     Eigenvalues ---    0.34515   0.34661   0.34681   0.34681   0.34726
     Eigenvalues ---    0.34726   0.36203   0.36944   0.38287   0.38641
     Eigenvalues ---    0.39690   0.41573   0.41587   0.45267   0.45563
     Eigenvalues ---    0.53121   0.53125   0.75000   0.75003   0.87250
     Eigenvalues ---    0.89849
 Quadratic step=9.133D-01 exceeds max=3.000D-01 adjusted using Lamda=-4.269D-01.
 Angle between NR and scaled steps=  14.54 degrees.
 Angle between quadratic step and forces=  10.95 degrees.
 Linear search not attempted -- first point.
 Variable       Old X    -DE/DX   Delta X   Delta X   Delta X     New X
                                 (Linear)    (Quad)   (Total)
    R2        2.06469   0.00000   0.00000   0.00000   0.00000   2.06470
    R3        2.06196   0.00001   0.00000   0.00001   0.00001   2.06197
    R4        2.06196   0.00001   0.00000   0.00001   0.00001   2.06197
    R5        3.38599  -0.07161   0.00000  -0.12582  -0.12582   3.26017
    R6        2.34227   0.00001   0.00000   0.00001   0.00001   2.34228
    R7        2.73442  -0.06486   0.00000  -0.07976  -0.07976   2.65467
    R8        1.91327   0.00000   0.00000   0.00000   0.00000   1.91327
    R9        2.97712  -0.06683   0.00000  -0.09787  -0.09787   2.87925
   R10        2.07383   0.00000   0.00000   0.00000   0.00000   2.07383
   R11        2.07383   0.00000   0.00000   0.00000   0.00000   2.07383
   R12        3.19338  -0.06447   0.00000  -0.10536  -0.10536   3.08801
   R13        2.33002   0.00001   0.00000   0.00001   0.00001   2.33003
   R14        2.71977  -0.06465   0.00000  -0.07848  -0.07848   2.64129
   R15        1.91666   0.00000   0.00000   0.00000   0.00000   1.91666
   R16        3.15255  -0.07300   0.00000  -0.11716  -0.11716   3.03539
   R17        2.06122   0.00001   0.00000   0.00001   0.00001   2.06123
   R18        2.06230   0.00000   0.00000   0.00000   0.00000   2.06230
   R19        2.06122   0.00001   0.00000   0.00001   0.00001   2.06123
    A3        1.97155  -0.00001   0.00000  -0.00002  -0.00002   1.97153
    A4        1.97155  -0.00001   0.00000  -0.00002  -0.00002   1.97153
    A5        1.98376   0.00001   0.00000   0.00003   0.00003   1.98378
    A6        1.92178   0.00001   0.00000   0.02351   0.02351   1.94528
    A7        2.31678  -0.07486   0.00000  -0.08710  -0.08710   2.22968
    A8        2.10595   0.00000   0.00000   0.00747   0.00747   2.11343
    A9        2.14584  -0.02798   0.00000  -0.03487  -0.03487   2.11097
   A10        1.85533   0.00001   0.00000   0.00875   0.00875   1.86408
   A11        1.85533   0.00001   0.00000   0.00798   0.00798   1.86330
   A12        2.13502  -0.07319   0.00000  -0.09682  -0.09682   2.03821
   A13        2.07053   0.00000   0.00000   0.01543   0.01543   2.08596
   A14        2.07425  -0.04914   0.00000  -0.05718  -0.05718   2.01707
   A15        1.99247  -0.00001   0.00000   0.01444   0.01444   2.00692
   A16        2.37908  -0.05418   0.00000  -0.06750  -0.06750   2.31158
   A17        1.84196   0.00002   0.00000   0.00005   0.00005   1.84201
   A18        1.85898   0.00000   0.00000   0.00000   0.00000   1.85898
   A19        1.84196   0.00002   0.00000   0.00005   0.00005   1.84200
    D4       -2.24767   0.00002   0.00000   0.00004   0.00004  -2.24763
    D5        2.01776   0.00000   0.00000   0.00001   0.00001   2.01776
    D6       -3.14159   0.00000   0.00000   0.00001   0.00001  -3.14158
    D7        3.14159   0.00000   0.00000   0.00001   0.00001   3.14160
    D8        0.00000   0.00000   0.00000   0.00001   0.00001   0.00001
    D9       -3.14159   0.00000   0.00000   0.00006   0.00006  -3.14153
   D10        0.99969   0.00000   0.00000   0.00013   0.00013   0.99982
   D11       -1.99938   0.00001   0.00000  -0.00960  -0.00960  -2.00898
   D12        2.14190   0.00000   0.00000  -0.00127  -0.00127   2.14063
   D13       -0.00001   0.00000   0.00000  -0.00005  -0.00005  -0.00006
   D14       -3.14159   0.00000   0.00000  -0.00002  -0.00002  -3.14161
   D15        0.00000   0.00000   0.00000   0.00001   0.00001   0.00000
   D16        3.14159   0.00000   0.00000  -0.00002  -0.00002   3.14158
   D17       -2.08859   0.00000   0.00000   0.00000   0.00000  -2.08859
   D18        2.08862   0.00000   0.00000  -0.00001  -0.00001   2.08861
   D19       -2.10595   0.00001   0.00000  -0.00003  -0.00003  -2.10598
         Item               Value     Threshold  Converged?
 Maximum Force            0.074858     0.000450     NO 
 RMS     Force            0.029559     0.000300     NO 
 Maximum Displacement     0.125817     0.001800     NO 
 RMS     Displacement     0.042020     0.001200     NO 
 Predicted change in Energy=-5.031463D-02
 GradGradGradGradGradGradGradGradGradGradGradGradGradGradGradGradGradGrad

 Leave Link  103 at Tue Sep 16 15:20:17 2025, MaxMem=    33554432 cpu:         0.3
 (Enter /nexus/posix0/bmm/home/sucerqdl/sw/g09/l9999.exe)
 1\1\GINC-SLURM-ORBIT-CPU2\Force\RBMK\6-31+G\C5H10N2O2\SUCERQDL\16-Sep-
 2025\1\\#P bmk/6-31+g force\\Gaussian input prepared by ASE\\0,1\C\H,1
 ,R2\H,1,R3,2,A3\H,1,R4,2,A4,3,D4,0\C,1,R5,2,A5,3,D5,0\O,5,R6,1,A6,2,D6
 ,0\N,5,R7,1,A7,6,D7,0\H,7,R8,5,A8,1,D8,0\C,7,R9,5,A9,8,D9,0\H,9,R10,7,
 A10,5,D10,0\H,9,R11,7,A11,10,D11,0\C,9,R12,7,A12,10,D12,0\O,12,R13,9,A
 13,7,D13,0\N,12,R14,9,A14,13,D14,0\H,14,R15,12,A15,9,D15,0\C,14,R16,12
 ,A16,15,D16,0\H,16,R17,14,A17,12,D17,0\H,16,R18,14,A18,17,D18,0\H,16,R
 19,14,A19,17,D19,0\\R2=1.09258914\R3=1.09114059\R4=1.09114061\R5=1.791
 78852\R6=1.23947533\R7=1.44699523\R8=1.01245921\R9=1.57542418\R10=1.09
 7424\R11=1.09742395\R12=1.68986199\R13=1.23299599\R14=1.43924134\R15=1
 .01425521\R16=1.6682588\R17=1.09075261\R18=1.09131964\R19=1.09075255\A
 3=112.96140048\A4=112.9612969\A5=113.6608616\A6=110.10962984\A7=132.74
 145774\A8=120.66212572\A9=122.94783259\A10=106.302326\A11=106.30232009
 \A12=122.32784051\A13=118.63290378\A14=118.84574949\A15=114.16035149\A
 16=136.31097663\A17=105.536616\A18=106.51169185\A19=105.53637113\D4=-1
 28.78205481\D5=115.60895228\D6=-179.9998489\D7=180.\D8=-0.00021136\D9=
 -179.99971072\D10=57.27805108\D11=-114.55579439\D12=122.72202153\D13=-
 0.00032039\D14=-179.99993053\D15=-0.00018922\D16=180.\D17=-119.6673317
 3\D18=119.66904032\D19=-120.66205772\\Version=ES64L-G09RevD.01\State=1
 -A\HF=-456.0517248\RMSD=3.566e-09\RMSF=1.405e-02\Dipole=-0.4648667,-0.
 9698573,-0.2727363\Quadrupole=-0.6708648,8.2355001,-7.5646353,5.542209
 3,6.1165309,12.7609908\PG=C01 [X(C5H10N2O2)]\\@


 A MAN IS EXACTLY AS GREAT AS THE TIDE SURGING
 BENEATH HIM.      - BISMARCK
 Job cpu time:       0 days  0 hours  1 minutes 56.5 seconds.
 File lengths (MBytes):  RWF=    132 Int=      0 D2E=      0 Chk=      3 Scr=      2
 Normal termination of Gaussian 09 at Tue Sep 16 15:20:18 2025.
