 Entering Gaussian System, Link 0=g09
 Input=G-forces06.com
 Output=G-forces06.log
 Initial command:
 /nexus/posix0/bmm/home/sucerqdl/sw/g09/l1.exe "/nexus/posix0/bmm/home/sucerqdl/sw/g09/g09_scratch/Gau-2770986.inp" -scrdir="/nexus/posix0/bmm/home/sucerqdl/sw/g09/g09_scratch/"
 Entering Link 1 = /nexus/posix0/bmm/home/sucerqdl/sw/g09/l1.exe PID=   2770996.
  
 Copyright (c) 1988,1990,1992,1993,1995,1998,2003,2009,2013,
            Gaussian, Inc.  All Rights Reserved.
  
 This is part of the Gaussian(R) 09 program.  It is based on
 the Gaussian(R) 03 system (copyright 2003, Gaussian, Inc.),
 the Gaussian(R) 98 system (copyright 1998, Gaussian, Inc.),
 the Gaussian(R) 94 system (copyright 1995, Gaussian, Inc.),
 the Gaussian 92(TM) system (copyright 1992, Gaussian, Inc.),
 the Gaussian 90(TM) system (copyright 1990, Gaussian, Inc.),
 the Gaussian 88(TM) system (copyright 1988, Gaussian, Inc.),
 the Gaussian 86(TM) system (copyright 1986, Carnegie Mellon
 University), and the Gaussian 82(TM) system (copyright 1983,
 Carnegie Mellon University). Gaussian is a federally registered
 trademark of Gaussian, Inc.
  
 This software contains proprietary and confidential information,
 including trade secrets, belonging to Gaussian, Inc.
  
 This software is provided under written license and may be
 used, copied, transmitted, or stored only in accord with that
 written license.
  
 The following legend is applicable only to US Government
 contracts under FAR:
  
                    RESTRICTED RIGHTS LEGEND
  
 Use, reproduction and disclosure by the US Government is
 subject to restrictions as set forth in subparagraphs (a)
 and (c) of the Commercial Computer Software - Restricted
 Rights clause in FAR 52.227-19.
  
 Gaussian, Inc.
 340 Quinnipiac St., Bldg. 40, Wallingford CT 06492
  
  
 ---------------------------------------------------------------
 Warning -- This program may not be used in any manner that
 competes with the business of Gaussian, Inc. or will provide
 assistance to any competitor of Gaussian, Inc.  The licensee
 of this program is prohibited from giving any competitor of
 Gaussian, Inc. access to this program.  By using this program,
 the user acknowledges that Gaussian, Inc. is engaged in the
 business of creating and licensing software in the field of
 computational chemistry and represents and warrants to the
 licensee that it is not a competitor of Gaussian, Inc. and that
 it will not use this program in any manner prohibited above.
 ---------------------------------------------------------------
  

 Cite this work as:
 Gaussian 09, Revision D.01,
 M. J. Frisch, G. W. Trucks, H. B. Schlegel, G. E. Scuseria, 
 M. A. Robb, J. R. Cheeseman, G. Scalmani, V. Barone, B. Mennucci, 
 G. A. Petersson, H. Nakatsuji, M. Caricato, X. Li, H. P. Hratchian, 
 A. F. Izmaylov, J. Bloino, G. Zheng, J. L. Sonnenberg, M. Hada, 
 M. Ehara, K. Toyota, R. Fukuda, J. Hasegawa, M. Ishida, T. Nakajima, 
 Y. Honda, O. Kitao, H. Nakai, T. Vreven, J. A. Montgomery, Jr., 
 J. E. Peralta, F. Ogliaro, M. Bearpark, J. J. Heyd, E. Brothers, 
 K. N. Kudin, V. N. Staroverov, T. Keith, R. Kobayashi, J. Normand, 
 K. Raghavachari, A. Rendell, J. C. Burant, S. S. Iyengar, J. Tomasi, 
 M. Cossi, N. Rega, J. M. Millam, M. Klene, J. E. Knox, J. B. Cross, 
 V. Bakken, C. Adamo, J. Jaramillo, R. Gomperts, R. E. Stratmann, 
 O. Yazyev, A. J. Austin, R. Cammi, C. Pomelli, J. W. Ochterski, 
 R. L. Martin, K. Morokuma, V. G. Zakrzewski, G. A. Voth, 
 P. Salvador, J. J. Dannenberg, S. Dapprich, A. D. Daniels, 
 O. Farkas, J. B. Foresman, J. V. Ortiz, J. Cioslowski, 
 and D. J. Fox, Gaussian, Inc., Wallingford CT, 2013.
 
 ******************************************
 Gaussian 09:  ES64L-G09RevD.01 24-Apr-2013
                16-Sep-2025 
 ******************************************
 %chk=G-forces06
 %NProcShared=16
 Will use up to   16 processors via shared memory.
 -------------------
 #P bmk/6-31+g force
 -------------------
 1/10=7,30=1,38=1/1,3;
 2/12=2,17=6,18=5,40=1/2;
 3/5=1,6=6,7=10,11=2,16=1,25=1,30=1,71=1,74=-34/1,2,3;
 4//1;
 5/5=2,38=5/2;
 6/7=2,8=2,9=2,10=2,28=1/1;
 7/29=1/1,2,3,16;
 1/10=7,30=1/3;
 99//99;
 Leave Link    1 at Tue Sep 16 15:20:09 2025, MaxMem=           0 cpu:         1.3
 (Enter /nexus/posix0/bmm/home/sucerqdl/sw/g09/l101.exe)
 ------------------------------
 Gaussian input prepared by ASE
 ------------------------------
 Symbolic Z-matrix:
 Charge =  0 Multiplicity = 1
 C
 H                    1    R2
 H                    1    R3       2    A3
 H                    1    R4       2    A4       3    D4       0
 C                    1    R5       2    A5       3    D5       0
 O                    5    R6       1    A6       2    D6       0
 N                    5    R7       1    A7       6    D7       0
 H                    7    R8       5    A8       1    D8       0
 C                    7    R9       5    A9       8    D9       0
 H                    9    R10      7    A10      5    D10      0
 H                    9    R11      7    A11      10   D11      0
 C                    9    R12      7    A12      10   D12      0
 O                    12   R13      9    A13      7    D13      0
 N                    12   R14      9    A14      13   D14      0
 H                    14   R15      12   A15      9    D15      0
 C                    14   R16      12   A16      15   D16      0
 H                    16   R17      14   A17      12   D17      0
 H                    16   R18      14   A18      17   D18      0
 H                    16   R19      14   A19      17   D19      0
       Variables:
  R2                    1.0936                   
  R3                    1.09208                  
  R4                    1.09208                  
  R5                    1.72672                  
  R6                    1.24215                  
  R7                    1.43547                  
  R8                    1.01243                  
  R9                    1.55718                  
  R10                   1.09812                  
  R11                   1.09812                  
  R12                   1.66174                  
  R13                   1.23475                  
  R14                   1.42925                  
  R15                   1.01383                  
  R16                   1.63117                  
  R17                   1.09159                  
  R18                   1.09203                  
  R19                   1.09159                  
  A3                  112.11333                  
  A4                  112.11319                  
  A5                  113.72956                  
  A6                  111.84746                  
  A7                  130.9465                   
  A8                  121.26071                  
  A9                  122.07377                  
  A10                 106.63941                  
  A11                 106.63948                  
  A12                 121.25591                  
  A13                 119.24581                  
  A14                 118.0137                   
  A15                 114.42913                  
  A16                 135.04913                  
  A17                 106.41843                  
  A18                 106.83269                  
  A19                 106.4181                   
  D4                 -126.19296                  
  D5                  116.90346                  
  D6                 -179.99832                  
  D7                 -179.99986                  
  D8                   -0.00062                  
  D9                 -179.99975                  
  D10                  57.1983                   
  D11                -114.39816                  
  D12                 122.80094                  
  D13                  -0.00045                  
  D14                 180.                       
  D15                  -0.0001                   
  D16                 179.99994                  
  D17                -119.59531                  
  D18                 119.59755                  
  D19                -120.80506                  
 
 NAtoms=     19 NQM=       19 NQMF=       0 NMMI=      0 NMMIF=      0
                NMic=       0 NMicF=      0.
                    Isotopes and Nuclear Properties:
 (Nuclear quadrupole moments (NQMom) in fm**2, nuclear magnetic moments (NMagM)
  in nuclear magnetons)

  Atom         1           2           3           4           5           6           7           8           9          10
 IAtWgt=          12           1           1           1          12          16          14           1          12           1
 AtmWgt=  12.0000000   1.0078250   1.0078250   1.0078250  12.0000000  15.9949146  14.0030740   1.0078250  12.0000000   1.0078250
 NucSpn=           0           1           1           1           0           0           2           1           0           1
 AtZEff=   0.0000000   0.0000000   0.0000000   0.0000000   0.0000000   0.0000000   0.0000000   0.0000000   0.0000000   0.0000000
 NQMom=    0.0000000   0.0000000   0.0000000   0.0000000   0.0000000   0.0000000   2.0440000   0.0000000   0.0000000   0.0000000
 NMagM=    0.0000000   2.7928460   2.7928460   2.7928460   0.0000000   0.0000000   0.4037610   2.7928460   0.0000000   2.7928460
 AtZNuc=   6.0000000   1.0000000   1.0000000   1.0000000   6.0000000   8.0000000   7.0000000   1.0000000   6.0000000   1.0000000

  Atom        11          12          13          14          15          16          17          18          19
 IAtWgt=           1          12          16          14           1          12           1           1           1
 AtmWgt=   1.0078250  12.0000000  15.9949146  14.0030740   1.0078250  12.0000000   1.0078250   1.0078250   1.0078250
 NucSpn=           1           0           0           2           1           0           1           1           1
 AtZEff=   0.0000000   0.0000000   0.0000000   0.0000000   0.0000000   0.0000000   0.0000000   0.0000000   0.0000000
 NQMom=    0.0000000   0.0000000   0.0000000   2.0440000   0.0000000   0.0000000   0.0000000   0.0000000   0.0000000
 NMagM=    2.7928460   0.0000000   0.0000000   0.4037610   2.7928460   0.0000000   2.7928460   2.7928460   2.7928460
 AtZNuc=   1.0000000   6.0000000   8.0000000   7.0000000   1.0000000   6.0000000   1.0000000   1.0000000   1.0000000
 Leave Link  101 at Tue Sep 16 15:20:09 2025, MaxMem=    33554432 cpu:         1.5
 (Enter /nexus/posix0/bmm/home/sucerqdl/sw/g09/l103.exe)

 GradGradGradGradGradGradGradGradGradGradGradGradGradGradGradGradGradGrad
 Berny optimization.
 Initialization pass.
                       ----------------------------
                       !    Initial Parameters    !
                       ! (Angstroms and Degrees)  !
 ----------------------                            ----------------------
 !      Name          Value   Derivative information (Atomic Units)     !
 ------------------------------------------------------------------------
 !       R2          1.0936   estimate D2E/DX2                          !
 !       R3          1.0921   estimate D2E/DX2                          !
 !       R4          1.0921   estimate D2E/DX2                          !
 !       R5          1.7267   estimate D2E/DX2                          !
 !       R6          1.2421   estimate D2E/DX2                          !
 !       R7          1.4355   estimate D2E/DX2                          !
 !       R8          1.0124   estimate D2E/DX2                          !
 !       R9          1.5572   estimate D2E/DX2                          !
 !       R10         1.0981   estimate D2E/DX2                          !
 !       R11         1.0981   estimate D2E/DX2                          !
 !       R12         1.6617   estimate D2E/DX2                          !
 !       R13         1.2347   estimate D2E/DX2                          !
 !       R14         1.4293   estimate D2E/DX2                          !
 !       R15         1.0138   estimate D2E/DX2                          !
 !       R16         1.6312   estimate D2E/DX2                          !
 !       R17         1.0916   estimate D2E/DX2                          !
 !       R18         1.092    estimate D2E/DX2                          !
 !       R19         1.0916   estimate D2E/DX2                          !
 !       A3        112.1133   estimate D2E/DX2                          !
 !       A4        112.1132   estimate D2E/DX2                          !
 !       A5        113.7296   estimate D2E/DX2                          !
 !       A6        111.8475   estimate D2E/DX2                          !
 !       A7        130.9465   estimate D2E/DX2                          !
 !       A8        121.2607   estimate D2E/DX2                          !
 !       A9        122.0738   estimate D2E/DX2                          !
 !       A10       106.6394   estimate D2E/DX2                          !
 !       A11       106.6395   estimate D2E/DX2                          !
 !       A12       121.2559   estimate D2E/DX2                          !
 !       A13       119.2458   estimate D2E/DX2                          !
 !       A14       118.0137   estimate D2E/DX2                          !
 !       A15       114.4291   estimate D2E/DX2                          !
 !       A16       135.0491   estimate D2E/DX2                          !
 !       A17       106.4184   estimate D2E/DX2                          !
 !       A18       106.8327   estimate D2E/DX2                          !
 !       A19       106.4181   estimate D2E/DX2                          !
 !       D4       -126.193    estimate D2E/DX2                          !
 !       D5        116.9035   estimate D2E/DX2                          !
 !       D6       -179.9983   estimate D2E/DX2                          !
 !       D7       -179.9999   estimate D2E/DX2                          !
 !       D8         -0.0006   estimate D2E/DX2                          !
 !       D9       -179.9997   estimate D2E/DX2                          !
 !       D10        57.1983   estimate D2E/DX2                          !
 !       D11      -114.3982   estimate D2E/DX2                          !
 !       D12       122.8009   estimate D2E/DX2                          !
 !       D13        -0.0004   estimate D2E/DX2                          !
 !       D14       180.0      estimate D2E/DX2                          !
 !       D15        -0.0001   estimate D2E/DX2                          !
 !       D16       179.9999   estimate D2E/DX2                          !
 !       D17      -119.5953   estimate D2E/DX2                          !
 !       D18       119.5976   estimate D2E/DX2                          !
 !       D19      -120.8051   estimate D2E/DX2                          !
 ------------------------------------------------------------------------
 Trust Radius=3.00D-01 FncErr=1.00D-07 GrdErr=1.00D-07
 Number of steps in this run=      2 maximum allowed number of steps=      2.
 GradGradGradGradGradGradGradGradGradGradGradGradGradGradGradGradGradGrad

 Leave Link  103 at Tue Sep 16 15:20:09 2025, MaxMem=    33554432 cpu:         0.3
 (Enter /nexus/posix0/bmm/home/sucerqdl/sw/g09/l202.exe)
                          Input orientation:                          
 ---------------------------------------------------------------------
 Center     Atomic      Atomic             Coordinates (Angstroms)
 Number     Number       Type             X           Y           Z
 ---------------------------------------------------------------------
      1          6           0        0.000000    0.000000    0.000000
      2          1           0        0.000000    0.000000    1.093596
      3          1           0        1.011747    0.000000   -0.411102
      4          1           0       -0.597444    0.816514   -0.411100
      5          6           0       -0.715263   -1.409648   -0.694865
      6          8           0       -0.696773   -1.373283   -1.936340
      7          7           0       -1.302408   -2.566725   -0.080865
      8          1           0       -1.349810   -2.660098    0.926135
      9          6           0       -1.895992   -3.736567   -0.919883
     10          1           0       -1.088225   -4.099115   -1.569454
     11          1           0       -2.665552   -3.298757   -1.569475
     12          6           0       -2.571014   -5.066862   -0.187729
     13          8           0       -2.601274   -5.126482    1.045206
     14          7           0       -3.095260   -6.100031   -1.024681
     15          1           0       -3.004460   -5.921094   -2.018451
     16          6           0       -3.824059   -7.536318   -0.766519
     17          1           0       -3.187020   -8.292963   -1.228286
     18          1           0       -3.890531   -7.667221    0.315595
     19          1           0       -4.810837   -7.469015   -1.228361
 ---------------------------------------------------------------------
                    Distance matrix (angstroms):
                    1          2          3          4          5
     1  C    0.000000
     2  H    1.093596   0.000000
     3  H    1.092079   1.813215   0.000000
     4  H    1.092080   1.813214   1.804492   0.000000
     5  C    1.726716   2.386902   2.247263   2.247266   0.000000
     6  O    2.474028   3.398811   2.670449   2.670475   1.242145
     7  N    2.879389   3.108650   3.471663   3.471648   1.435466
     8  H    3.123433   2.987667   3.800168   3.800143   2.143342
     9  C    4.289860   4.648744   4.761905   4.761894   2.619027
    10  H    4.522186   5.007875   4.749148   5.074058   2.852584
    11  H    4.522192   5.007885   5.074067   4.749143   2.852596
    12  C    5.684931   5.824517   6.209603   6.209588   4.132337
    13  O    5.842936   5.748894   6.438600   6.438584   4.516607
    14  N    6.916718   7.160874   7.379320   7.379307   5.269996
    15  H    6.939761   7.332870   7.332997   7.332985   5.229288
    16  C    8.485697   8.653296   8.961441   8.961426   6.870649
    17  H    8.968780   9.182672   9.331166   9.505591   7.333085
    18  H    8.603610   8.632948   9.129441   9.129418   7.089469
    19  H    8.968790   9.182691   9.505608   9.331162   7.333094
                    6          7          8          9         10
     6  O    0.000000
     7  N    2.287768   0.000000
     8  H    3.205638   1.012430   0.000000
     9  C    2.838384   1.557184   2.205648   0.000000
    10  H    2.778129   2.147088   2.892604   1.098121   0.000000
    11  H    2.778152   2.147089   2.892600   1.098121   1.768766
    12  C    4.495881   2.805613   2.919682   1.661743   2.245965
    13  O    5.157834   3.083415   2.768283   2.508160   3.190807
    14  N    5.378291   4.073004   4.322663   2.652393   2.885937
    15  H    5.100466   4.231196   4.694950   2.684719   2.682007
    16  C    7.009379   5.614775   5.724028   4.263692   4.465854
    17  H    7.388142   6.136623   6.304446   4.745799   4.702094
    18  H    7.408438   5.733290   5.647946   4.577623   4.913014
    19  H    7.388146   6.136633   6.304462   4.745803   5.032932
                   11         12         13         14         15
    11  H    0.000000
    12  C    2.245964   0.000000
    13  O    3.190810   1.234747   0.000000
    14  N    2.885930   1.429252   2.340139   0.000000
    15  H    2.681994   2.066188   3.190606   1.013826   0.000000
    16  C    4.465848   2.829016   3.253438   1.631169   2.201823
    17  H    5.032935   3.445280   3.941886   2.204274   2.506681
    18  H    4.912997   2.959109   2.941066   2.210176   3.046613
    19  H    4.702091   3.445295   3.941920   2.204269   2.506650
                   16         17         18         19
    16  C    0.000000
    17  H    1.091586   0.000000
    18  H    1.092028   1.808328   0.000000
    19  H    1.091586   1.820899   1.808328   0.000000
 Stoichiometry    C5H10N2O2
 Framework group  C1[X(C5H10N2O2)]
 Deg. of freedom    51
 Full point group                 C1      NOp   1
 Largest Abelian subgroup         C1      NOp   1
 Largest concise Abelian subgroup C1      NOp   1
                         Standard orientation:                         
 ---------------------------------------------------------------------
 Center     Atomic      Atomic             Coordinates (Angstroms)
 Number     Number       Type             X           Y           Z
 ---------------------------------------------------------------------
      1          6           0       -4.121744    0.575189    0.000007
      2          1           0       -4.107050    1.668686   -0.000010
      3          1           0       -4.585042    0.170262   -0.902227
      4          1           0       -4.585022    0.170292    0.902265
      5          6           0       -2.550493   -0.140853   -0.000002
      6          8           0       -2.607967   -1.381668   -0.000016
      7          7           0       -1.244837    0.455656    0.000008
      8          1           0       -1.126599    1.461159    0.000013
      9          6           0        0.055591   -0.400912    0.000006
     10          1           0        0.004660   -1.049871   -0.884375
     11          1           0        0.004668   -1.049865    0.884391
     12          6           0        1.557051    0.311131   -0.000002
     13          8           0        1.640472    1.543057   -0.000014
     14          7           0        2.704266   -0.541313    0.000007
     15          1           0        2.490274   -1.532297    0.000018
     16          6           0        4.318199   -0.304815    0.000001
     17          1           0        4.698450   -0.771749   -0.910463
     18          1           0        4.479540    0.775228    0.000028
     19          1           0        4.698457   -0.771796    0.910437
 ---------------------------------------------------------------------
 Rotational constants (GHZ):      5.0551326      0.5333254      0.4869730
 Leave Link  202 at Tue Sep 16 15:20:10 2025, MaxMem=    33554432 cpu:         0.1
 (Enter /nexus/posix0/bmm/home/sucerqdl/sw/g09/l301.exe)
 Standard basis: 6-31+G (6D, 7F)
 Ernie: Thresh=  0.10000D-02 Tol=  0.10000D-05 Strict=F.
 There are   137 symmetry adapted cartesian basis functions of A   symmetry.
 There are   137 symmetry adapted basis functions of A   symmetry.
   137 basis functions,   274 primitive gaussians,   137 cartesian basis functions
    35 alpha electrons       35 beta electrons
       nuclear repulsion energy       417.4282245638 Hartrees.
 IExCor= 3226 DFT=T Ex+Corr=BMK ExCW=0 ScaHFX=  0.420000
 ScaDFX=  1.000000  1.000000  1.000000  1.000000 ScalE2=  1.000000  1.000000
 IRadAn=      0 IRanWt=     -1 IRanGd=            0 ICorTp=0 IEmpDi=  4
 NAtoms=   19 NActive=   19 NUniq=   19 SFac= 1.00D+00 NAtFMM=   60 NAOKFM=F Big=F
 Integral buffers will be    131072 words long.
 Raffenetti 2 integral format.
 Two-electron integral symmetry is turned on.
 Leave Link  301 at Tue Sep 16 15:20:10 2025, MaxMem=    33554432 cpu:         0.8
 (Enter /nexus/posix0/bmm/home/sucerqdl/sw/g09/l302.exe)
 NPDir=0 NMtPBC=     1 NCelOv=     1 NCel=       1 NClECP=     1 NCelD=      1
         NCelK=      1 NCelE2=     1 NClLst=     1 CellRange=     0.0.
 One-electron integrals computed using PRISM.
 PrsmSu:  requested number of processors reduced to:   9 ShMem   1 Linda.
 NBasis=   137 RedAO= T EigKep=  3.50D-05  NBF=   137
 NBsUse=   137 1.00D-06 EigRej= -1.00D+00 NBFU=   137
 Precomputing XC quadrature grid using
 IXCGrd= 4 IRadAn=           0 IRanWt=          -1 IRanGd=           0 AccXCQ= 0.00D+00.
 Generated NRdTot=       0 NPtTot=           0 NUsed=           0 NTot=          32
 NSgBfM=   136   136   136   136   137 MxSgAt=    19 MxSgA2=    19.
 Leave Link  302 at Tue Sep 16 15:20:10 2025, MaxMem=    33554432 cpu:         2.0
 (Enter /nexus/posix0/bmm/home/sucerqdl/sw/g09/l303.exe)
 DipDrv:  MaxL=1.
 Leave Link  303 at Tue Sep 16 15:20:10 2025, MaxMem=    33554432 cpu:         0.4
 (Enter /nexus/posix0/bmm/home/sucerqdl/sw/g09/l401.exe)
 ExpMin= 4.38D-02 ExpMax= 5.48D+03 ExpMxC= 8.25D+02 IAcc=2 IRadAn=         4 AccDes= 0.00D+00
 Harris functional with IExCor= 1009 and IRadAn=       4 diagonalized for initial guess.
 HarFok:  IExCor= 1009 AccDes= 0.00D+00 IRadAn=         4 IDoV= 1 UseB2=F ITyADJ=14
 ICtDFT=  3500011 ScaDFX=  1.000000  1.000000  1.000000  1.000000
 FoFCou: FMM=F IPFlag=           0 FMFlag=      100000 FMFlg1=           0
         NFxFlg=           0 DoJE=T BraDBF=F KetDBF=T FulRan=T
         wScrn=  0.000000 ICntrl=     500 IOpCl=  0 I1Cent=   200000004 NGrid=           0
         NMat0=    1 NMatS0=      1 NMatT0=    0 NMatD0=    1 NMtDS0=    0 NMtDT0=    0
 Petite list used in FoFCou.
 Harris En= -455.932028770540    
 JPrj=0 DoOrth=F DoCkMO=F.
 Leave Link  401 at Tue Sep 16 15:20:10 2025, MaxMem=    33554432 cpu:         3.3
 (Enter /nexus/posix0/bmm/home/sucerqdl/sw/g09/l502.exe)
 Closed shell SCF:
 Using DIIS extrapolation, IDIIS=  1040.
 Integral symmetry usage will be decided dynamically.
 IVT=       78102 IEndB=       78102 NGot=    33554432 MDV=    33511877
 LenX=    33511877 LenY=    33492667
 Requested convergence on RMS density matrix=1.00D-08 within 128 cycles.
 Requested convergence on MAX density matrix=1.00D-06.
 Requested convergence on             energy=1.00D-06.
 No special actions if energy rises.
 Fock matrices will be formed incrementally for  20 cycles.

 Cycle   1  Pass 1  IDiag  1:
 FoFJK:  IHMeth= 1 ICntrl=       0 DoSepK=F KAlg= 0 I1Cent=   0 FoldK=F
 IRaf= 880000000 NMat=   1 IRICut=       1 DoRegI=T DoRafI=F ISym2E= 0.
 FoFCou: FMM=F IPFlag=           0 FMFlag=      100000 FMFlg1=           0
         NFxFlg=           0 DoJE=F BraDBF=F KetDBF=F FulRan=T
         wScrn=  0.000000 ICntrl=       0 IOpCl=  0 I1Cent=           0 NGrid=           0
         NMat0=    1 NMatS0=      1 NMatT0=    0 NMatD0=    1 NMtDS0=    0 NMtDT0=    0
 Symmetry not used in FoFCou.
 E= -455.838276363998    
 DIIS: error= 3.93D-02 at cycle   1 NSaved=   1.
 NSaved= 1 IEnMin= 1 EnMin= -455.838276363998     IErMin= 1 ErrMin= 3.93D-02
 ErrMax= 3.93D-02  0.00D+00 EMaxC= 1.00D-01 BMatC= 2.72D-01 BMatP= 2.72D-01
 IDIUse=3 WtCom= 6.07D-01 WtEn= 3.93D-01
 Coeff-Com:  0.100D+01
 Coeff-En:   0.100D+01
 Coeff:      0.100D+01
 Gap=     0.322 Goal=   None    Shift=    0.000
 GapD=    0.322 DampG=1.000 DampE=0.500 DampFc=0.5000 IDamp=-1.
 Damping current iteration by 5.00D-01
 RMSDP=2.78D-02 MaxDP=1.40D+00              OVMax= 2.89D-01

 Cycle   2  Pass 1  IDiag  1:
 RMSU=  1.19D-02    CP:  1.16D+00
 E= -455.893201075528     Delta-E=       -0.054924711530 Rises=F Damp=T
 DIIS: error= 2.12D-02 at cycle   2 NSaved=   2.
 NSaved= 2 IEnMin= 2 EnMin= -455.893201075528     IErMin= 2 ErrMin= 2.12D-02
 ErrMax= 2.12D-02  0.00D+00 EMaxC= 1.00D-01 BMatC= 4.82D-02 BMatP= 2.72D-01
 IDIUse=3 WtCom= 7.88D-01 WtEn= 2.12D-01
 Coeff-Com:  0.253D+00 0.747D+00
 Coeff-En:   0.380D+00 0.620D+00
 Coeff:      0.280D+00 0.720D+00
 Gap=     0.322 Goal=   None    Shift=    0.000
 RMSDP=1.19D-02 MaxDP=7.18D-01 DE=-5.49D-02 OVMax= 1.50D-01

 Cycle   3  Pass 1  IDiag  1:
 RMSU=  4.85D-03    CP:  9.93D-01  3.35D-01
 E= -456.063377820840     Delta-E=       -0.170176745312 Rises=F Damp=F
 DIIS: error= 1.32D-02 at cycle   3 NSaved=   3.
 NSaved= 3 IEnMin= 3 EnMin= -456.063377820840     IErMin= 3 ErrMin= 1.32D-02
 ErrMax= 1.32D-02  0.00D+00 EMaxC= 1.00D-01 BMatC= 1.62D-02 BMatP= 4.82D-02
 IDIUse=3 WtCom= 8.68D-01 WtEn= 1.32D-01
 Coeff-Com:  0.999D-01 0.371D+00 0.529D+00
 Coeff-En:   0.000D+00 0.000D+00 0.100D+01
 Coeff:      0.867D-01 0.322D+00 0.591D+00
 Gap=     0.331 Goal=   None    Shift=    0.000
 RMSDP=1.58D-03 MaxDP=3.24D-02 DE=-1.70D-01 OVMax= 4.20D-02

 Cycle   4  Pass 1  IDiag  1:
 RMSU=  1.33D-03    CP:  1.00D+00  3.93D-01  9.79D-01
 E= -456.076922616818     Delta-E=       -0.013544795978 Rises=F Damp=F
 DIIS: error= 4.75D-03 at cycle   4 NSaved=   4.
 NSaved= 4 IEnMin= 4 EnMin= -456.076922616818     IErMin= 4 ErrMin= 4.75D-03
 ErrMax= 4.75D-03  0.00D+00 EMaxC= 1.00D-01 BMatC= 2.39D-03 BMatP= 1.62D-02
 IDIUse=3 WtCom= 9.53D-01 WtEn= 4.75D-02
 Coeff-Com:  0.209D-01 0.394D-01 0.280D+00 0.660D+00
 Coeff-En:   0.000D+00 0.000D+00 0.687D-01 0.931D+00
 Coeff:      0.199D-01 0.375D-01 0.270D+00 0.673D+00
 Gap=     0.327 Goal=   None    Shift=    0.000
 RMSDP=6.44D-04 MaxDP=2.32D-02 DE=-1.35D-02 OVMax= 1.21D-02

 Cycle   5  Pass 1  IDiag  1:
 RMSU=  3.08D-04    CP:  9.98D-01  3.60D-01  1.00D+00  8.07D-01
 E= -456.078785895276     Delta-E=       -0.001863278458 Rises=F Damp=F
 DIIS: error= 1.25D-03 at cycle   5 NSaved=   5.
 NSaved= 5 IEnMin= 5 EnMin= -456.078785895276     IErMin= 5 ErrMin= 1.25D-03
 ErrMax= 1.25D-03  0.00D+00 EMaxC= 1.00D-01 BMatC= 1.78D-04 BMatP= 2.39D-03
 IDIUse=3 WtCom= 9.88D-01 WtEn= 1.25D-02
 Coeff-Com:  0.363D-02-0.153D-01 0.900D-01 0.340D+00 0.582D+00
 Coeff-En:   0.000D+00 0.000D+00 0.000D+00 0.000D+00 0.100D+01
 Coeff:      0.358D-02-0.152D-01 0.889D-01 0.336D+00 0.587D+00
 Gap=     0.326 Goal=   None    Shift=    0.000
 RMSDP=2.48D-04 MaxDP=1.41D-02 DE=-1.86D-03 OVMax= 3.82D-03

 Cycle   6  Pass 1  IDiag  1:
 RMSU=  1.05D-04    CP:  9.95D-01  3.49D-01  1.02D+00  8.37D-01  7.74D-01
 E= -456.078951895163     Delta-E=       -0.000165999886 Rises=F Damp=F
 DIIS: error= 2.56D-04 at cycle   6 NSaved=   6.
 NSaved= 6 IEnMin= 6 EnMin= -456.078951895163     IErMin= 6 ErrMin= 2.56D-04
 ErrMax= 2.56D-04  0.00D+00 EMaxC= 1.00D-01 BMatC= 1.01D-05 BMatP= 1.78D-04
 IDIUse=3 WtCom= 9.97D-01 WtEn= 2.56D-03
 Coeff-Com:  0.178D-02-0.976D-02 0.261D-01 0.100D+00 0.246D+00 0.636D+00
 Coeff-En:   0.000D+00 0.000D+00 0.000D+00 0.000D+00 0.000D+00 0.100D+01
 Coeff:      0.178D-02-0.974D-02 0.261D-01 0.100D+00 0.245D+00 0.637D+00
 Gap=     0.326 Goal=   None    Shift=    0.000
 RMSDP=8.57D-05 MaxDP=4.52D-03 DE=-1.66D-04 OVMax= 5.27D-04

 Cycle   7  Pass 1  IDiag  1:
 RMSU=  3.25D-05    CP:  9.93D-01  3.44D-01  1.02D+00  8.39D-01  8.13D-01
                    CP:  1.02D+00
 E= -456.078960304748     Delta-E=       -0.000008409585 Rises=F Damp=F
 DIIS: error= 8.75D-05 at cycle   7 NSaved=   7.
 NSaved= 7 IEnMin= 7 EnMin= -456.078960304748     IErMin= 7 ErrMin= 8.75D-05
 ErrMax= 8.75D-05  0.00D+00 EMaxC= 1.00D-01 BMatC= 1.35D-06 BMatP= 1.01D-05
 IDIUse=1 WtCom= 1.00D+00 WtEn= 0.00D+00
 Coeff-Com:  0.724D-03-0.203D-02-0.405D-02-0.226D-01 0.155D-02 0.239D+00
 Coeff-Com:  0.788D+00
 Coeff:      0.724D-03-0.203D-02-0.405D-02-0.226D-01 0.155D-02 0.239D+00
 Coeff:      0.788D+00
 Gap=     0.326 Goal=   None    Shift=    0.000
 RMSDP=3.06D-05 MaxDP=9.66D-04 DE=-8.41D-06 OVMax= 4.29D-04

 Cycle   8  Pass 1  IDiag  1:
 RMSU=  1.58D-05    CP:  9.93D-01  3.42D-01  1.02D+00  8.38D-01  8.42D-01
                    CP:  1.04D+00  9.99D-01
 E= -456.078961430848     Delta-E=       -0.000001126101 Rises=F Damp=F
 DIIS: error= 5.80D-05 at cycle   8 NSaved=   8.
 NSaved= 8 IEnMin= 8 EnMin= -456.078961430848     IErMin= 8 ErrMin= 5.80D-05
 ErrMax= 5.80D-05  0.00D+00 EMaxC= 1.00D-01 BMatC= 2.73D-07 BMatP= 1.35D-06
 IDIUse=1 WtCom= 1.00D+00 WtEn= 0.00D+00
 Coeff-Com:  0.318D-03-0.407D-03-0.480D-02-0.237D-01-0.223D-01 0.773D-01
 Coeff-Com:  0.485D+00 0.489D+00
 Coeff:      0.318D-03-0.407D-03-0.480D-02-0.237D-01-0.223D-01 0.773D-01
 Coeff:      0.485D+00 0.489D+00
 Gap=     0.326 Goal=   None    Shift=    0.000
 RMSDP=1.53D-05 MaxDP=6.76D-04 DE=-1.13D-06 OVMax= 1.79D-04

 Cycle   9  Pass 1  IDiag  1:
 RMSU=  7.66D-06    CP:  9.93D-01  3.41D-01  1.02D+00  8.37D-01  8.51D-01
                    CP:  1.04D+00  1.14D+00  9.85D-01
 E= -456.078961644060     Delta-E=       -0.000000213211 Rises=F Damp=F
 DIIS: error= 1.36D-05 at cycle   9 NSaved=   9.
 NSaved= 9 IEnMin= 9 EnMin= -456.078961644060     IErMin= 9 ErrMin= 1.36D-05
 ErrMax= 1.36D-05  0.00D+00 EMaxC= 1.00D-01 BMatC= 2.00D-08 BMatP= 2.73D-07
 IDIUse=1 WtCom= 1.00D+00 WtEn= 0.00D+00
 Coeff-Com: -0.288D-04 0.238D-03-0.622D-03-0.336D-02-0.790D-02-0.324D-01
 Coeff-Com:  0.126D-01 0.219D+00 0.813D+00
 Coeff:     -0.288D-04 0.238D-03-0.622D-03-0.336D-02-0.790D-02-0.324D-01
 Coeff:      0.126D-01 0.219D+00 0.813D+00
 Gap=     0.326 Goal=   None    Shift=    0.000
 RMSDP=2.82D-06 MaxDP=5.36D-05 DE=-2.13D-07 OVMax= 6.51D-05

 Cycle  10  Pass 1  IDiag  1:
 RMSU=  1.62D-06    CP:  9.93D-01  3.41D-01  1.02D+00  8.37D-01  8.52D-01
                    CP:  1.05D+00  1.13D+00  1.04D+00  8.37D-01
 E= -456.078961665225     Delta-E=       -0.000000021166 Rises=F Damp=F
 DIIS: error= 2.46D-06 at cycle  10 NSaved=  10.
 NSaved=10 IEnMin=10 EnMin= -456.078961665225     IErMin=10 ErrMin= 2.46D-06
 ErrMax= 2.46D-06  0.00D+00 EMaxC= 1.00D-01 BMatC= 7.00D-10 BMatP= 2.00D-08
 IDIUse=1 WtCom= 1.00D+00 WtEn= 0.00D+00
 Coeff-Com: -0.233D-04 0.108D-03-0.394D-04-0.408D-03-0.210D-02-0.152D-01
 Coeff-Com: -0.112D-01 0.579D-01 0.307D+00 0.664D+00
 Coeff:     -0.233D-04 0.108D-03-0.394D-04-0.408D-03-0.210D-02-0.152D-01
 Coeff:     -0.112D-01 0.579D-01 0.307D+00 0.664D+00
 Gap=     0.326 Goal=   None    Shift=    0.000
 RMSDP=6.87D-07 MaxDP=1.87D-05 DE=-2.12D-08 OVMax= 7.59D-06

 Cycle  11  Pass 1  IDiag  1:
 RMSU=  4.37D-07    CP:  9.93D-01  3.41D-01  1.02D+00  8.37D-01  8.52D-01
                    CP:  1.05D+00  1.14D+00  1.04D+00  8.79D-01  9.86D-01
 E= -456.078961665928     Delta-E=       -0.000000000703 Rises=F Damp=F
 DIIS: error= 9.40D-07 at cycle  11 NSaved=  11.
 NSaved=11 IEnMin=11 EnMin= -456.078961665928     IErMin=11 ErrMin= 9.40D-07
 ErrMax= 9.40D-07  0.00D+00 EMaxC= 1.00D-01 BMatC= 9.82D-11 BMatP= 7.00D-10
 IDIUse=1 WtCom= 1.00D+00 WtEn= 0.00D+00
 Coeff-Com: -0.657D-05 0.144D-04 0.743D-04 0.282D-03 0.238D-03-0.181D-02
 Coeff-Com: -0.622D-02-0.851D-02 0.140D-01 0.285D+00 0.717D+00
 Coeff:     -0.657D-05 0.144D-04 0.743D-04 0.282D-03 0.238D-03-0.181D-02
 Coeff:     -0.622D-02-0.851D-02 0.140D-01 0.285D+00 0.717D+00
 Gap=     0.326 Goal=   None    Shift=    0.000
 RMSDP=2.08D-07 MaxDP=8.54D-06 DE=-7.03D-10 OVMax= 4.19D-06

 Cycle  12  Pass 1  IDiag  1:
 RMSU=  1.31D-07    CP:  9.93D-01  3.41D-01  1.02D+00  8.37D-01  8.52D-01
                    CP:  1.04D+00  1.14D+00  1.04D+00  8.87D-01  1.03D+00
                    CP:  8.45D-01
 E= -456.078961666034     Delta-E=       -0.000000000105 Rises=F Damp=F
 DIIS: error= 2.10D-07 at cycle  12 NSaved=  12.
 NSaved=12 IEnMin=12 EnMin= -456.078961666034     IErMin=12 ErrMin= 2.10D-07
 ErrMax= 2.10D-07  0.00D+00 EMaxC= 1.00D-01 BMatC= 9.42D-12 BMatP= 9.82D-11
 IDIUse=1 WtCom= 1.00D+00 WtEn= 0.00D+00
 Coeff-Com: -0.161D-05 0.102D-05 0.357D-04 0.138D-03 0.223D-03 0.119D-03
 Coeff-Com: -0.230D-02-0.682D-02-0.132D-01 0.893D-01 0.326D+00 0.606D+00
 Coeff:     -0.161D-05 0.102D-05 0.357D-04 0.138D-03 0.223D-03 0.119D-03
 Coeff:     -0.230D-02-0.682D-02-0.132D-01 0.893D-01 0.326D+00 0.606D+00
 Gap=     0.326 Goal=   None    Shift=    0.000
 RMSDP=4.90D-08 MaxDP=1.93D-06 DE=-1.05D-10 OVMax= 6.25D-07

 Cycle  13  Pass 1  IDiag  1:
 RMSU=  2.84D-08    CP:  9.93D-01  3.41D-01  1.02D+00  8.37D-01  8.52D-01
                    CP:  1.04D+00  1.14D+00  1.04D+00  8.87D-01  1.04D+00
                    CP:  8.51D-01  9.67D-01
 E= -456.078961666041     Delta-E=       -0.000000000007 Rises=F Damp=F
 DIIS: error= 6.88D-08 at cycle  13 NSaved=  13.
 NSaved=13 IEnMin=13 EnMin= -456.078961666041     IErMin=13 ErrMin= 6.88D-08
 ErrMax= 6.88D-08  0.00D+00 EMaxC= 1.00D-01 BMatC= 7.87D-13 BMatP= 9.42D-12
 IDIUse=1 WtCom= 1.00D+00 WtEn= 0.00D+00
 Coeff-Com:  0.248D-06-0.147D-05 0.640D-05 0.204D-04 0.668D-04 0.301D-03
 Coeff-Com: -0.213D-03-0.146D-02-0.747D-02-0.268D-02 0.365D-01 0.242D+00
 Coeff-Com:  0.733D+00
 Coeff:      0.248D-06-0.147D-05 0.640D-05 0.204D-04 0.668D-04 0.301D-03
 Coeff:     -0.213D-03-0.146D-02-0.747D-02-0.268D-02 0.365D-01 0.242D+00
 Coeff:      0.733D+00
 Gap=     0.326 Goal=   None    Shift=    0.000
 RMSDP=2.53D-08 MaxDP=9.04D-07 DE=-7.28D-12 OVMax= 1.83D-07

 Cycle  14  Pass 1  IDiag  1:
 RMSU=  1.21D-08    CP:  9.93D-01  3.41D-01  1.02D+00  8.37D-01  8.52D-01
                    CP:  1.04D+00  1.14D+00  1.04D+00  8.86D-01  1.05D+00
                    CP:  8.59D-01  9.86D-01  8.68D-01
 E= -456.078961666041     Delta-E=        0.000000000000 Rises=F Damp=F
 DIIS: error= 1.11D-08 at cycle  14 NSaved=  14.
 NSaved=14 IEnMin=13 EnMin= -456.078961666041     IErMin=14 ErrMin= 1.11D-08
 ErrMax= 1.11D-08  0.00D+00 EMaxC= 1.00D-01 BMatC= 1.87D-14 BMatP= 7.87D-13
 IDIUse=1 WtCom= 1.00D+00 WtEn= 0.00D+00
 Coeff-Com:  0.113D-06-0.311D-06-0.392D-07-0.203D-05 0.475D-05 0.530D-04
 Coeff-Com:  0.506D-04-0.725D-04-0.822D-03-0.415D-02-0.626D-02 0.221D-01
 Coeff-Com:  0.147D+00 0.842D+00
 Coeff:      0.113D-06-0.311D-06-0.392D-07-0.203D-05 0.475D-05 0.530D-04
 Coeff:      0.506D-04-0.725D-04-0.822D-03-0.415D-02-0.626D-02 0.221D-01
 Coeff:      0.147D+00 0.842D+00
 Gap=     0.326 Goal=   None    Shift=    0.000
 RMSDP=3.16D-09 MaxDP=7.20D-08 DE= 2.27D-13 OVMax= 4.04D-08

 SCF Done:  E(RBMK) =  -456.078961666     A.U. after   14 cycles
            NFock= 14  Conv=0.32D-08     -V/T= 2.0082
 KE= 4.523805025284D+02 PE=-1.899255070811D+03 EE= 5.733673820528D+02
 Leave Link  502 at Tue Sep 16 15:20:16 2025, MaxMem=    33554432 cpu:        91.9
 (Enter /nexus/posix0/bmm/home/sucerqdl/sw/g09/l601.exe)
 Copying SCF densities to generalized density rwf, IOpCl= 0 IROHF=0.

 **********************************************************************

            Population analysis using the SCF density.

 **********************************************************************

 Orbital symmetries:
       Occupied  (A) (A) (A) (A) (A) (A) (A) (A) (A) (A) (A) (A)
                 (A) (A) (A) (A) (A) (A) (A) (A) (A) (A) (A) (A)
                 (A) (A) (A) (A) (A) (A) (A) (A) (A) (A) (A)
       Virtual   (A) (A) (A) (A) (A) (A) (A) (A) (A) (A) (A) (A)
                 (A) (A) (A) (A) (A) (A) (A) (A) (A) (A) (A) (A)
                 (A) (A) (A) (A) (A) (A) (A) (A) (A) (A) (A) (A)
                 (A) (A) (A) (A) (A) (A) (A) (A) (A) (A) (A) (A)
                 (A) (A) (A) (A) (A) (A) (A) (A) (A) (A) (A) (A)
                 (A) (A) (A) (A) (A) (A) (A) (A) (A) (A) (A) (A)
                 (A) (A) (A) (A) (A) (A) (A) (A) (A) (A) (A) (A)
                 (A) (A) (A) (A) (A) (A) (A) (A) (A) (A) (A) (A)
                 (A) (A) (A) (A) (A) (A)
 The electronic state is 1-A.
 Alpha  occ. eigenvalues --  -19.54023 -19.52400 -14.72551 -14.71878 -10.63190
 Alpha  occ. eigenvalues --  -10.61761 -10.54877 -10.54091 -10.50007  -1.15091
 Alpha  occ. eigenvalues --   -1.13778  -0.98524  -0.97653  -0.81157  -0.78949
 Alpha  occ. eigenvalues --   -0.76468  -0.64059  -0.63406  -0.57594  -0.52487
 Alpha  occ. eigenvalues --   -0.52027  -0.51343  -0.50459  -0.49145  -0.48416
 Alpha  occ. eigenvalues --   -0.47802  -0.45795  -0.44403  -0.44099  -0.43028
 Alpha  occ. eigenvalues --   -0.41038  -0.31398  -0.30820  -0.29563  -0.29487
 Alpha virt. eigenvalues --    0.03117   0.03347   0.03415   0.03952   0.04597
 Alpha virt. eigenvalues --    0.06675   0.07084   0.07886   0.08270   0.08953
 Alpha virt. eigenvalues --    0.09079   0.10173   0.11061   0.11592   0.12101
 Alpha virt. eigenvalues --    0.12947   0.13547   0.14237   0.15523   0.16039
 Alpha virt. eigenvalues --    0.16529   0.17540   0.18598   0.20124   0.20717
 Alpha virt. eigenvalues --    0.21101   0.22685   0.22821   0.23178   0.23798
 Alpha virt. eigenvalues --    0.24250   0.25031   0.26842   0.27232   0.27956
 Alpha virt. eigenvalues --    0.27983   0.29001   0.29753   0.31156   0.31492
 Alpha virt. eigenvalues --    0.31780   0.33352   0.34757   0.36147   0.36354
 Alpha virt. eigenvalues --    0.36840   0.37351   0.39121   0.40461   0.40750
 Alpha virt. eigenvalues --    0.43295   0.45308   0.46271   0.47609   0.52690
 Alpha virt. eigenvalues --    0.56086   0.66183   0.69076   0.69188   0.70569
 Alpha virt. eigenvalues --    0.71036   0.74226   0.77171   0.78932   0.80201
 Alpha virt. eigenvalues --    0.82911   0.84666   0.85940   0.91545   0.93772
 Alpha virt. eigenvalues --    0.98823   1.00069   1.01489   1.02613   1.10451
 Alpha virt. eigenvalues --    1.11923   1.12645   1.12820   1.13117   1.16006
 Alpha virt. eigenvalues --    1.16622   1.19204   1.22033   1.23353   1.25107
 Alpha virt. eigenvalues --    1.28819   1.33786   1.34057   1.36488   1.36526
 Alpha virt. eigenvalues --    1.42060   1.43703   1.46487   1.49650   1.50949
 Alpha virt. eigenvalues --    1.54748   1.56279   1.60458   1.67532   1.84025
 Alpha virt. eigenvalues --    2.02717   2.11649
          Condensed to atoms (all electrons):
               1          2          3          4          5          6
     1  C    6.318683   0.338648   0.407029   0.407027  -0.269956  -0.142074
     2  H    0.338648   0.528016  -0.025919  -0.025920  -0.023705   0.006786
     3  H    0.407029  -0.025919   0.466841  -0.021886  -0.050044  -0.003922
     4  H    0.407027  -0.025920  -0.021886   0.466843  -0.050042  -0.003922
     5  C   -0.269956  -0.023705  -0.050044  -0.050042   5.695137   0.441295
     6  O   -0.142074   0.006786  -0.003922  -0.003922   0.441295   8.484143
     7  N   -0.244694   0.006343   0.000558   0.000558  -0.084601  -0.223076
     8  H    0.010930  -0.000174   0.000010   0.000010   0.022865   0.006228
     9  C   -0.171189   0.001227  -0.003719  -0.003719  -0.727810  -0.043725
    10  H   -0.001837   0.000000   0.000010  -0.000003   0.000371   0.000979
    11  H   -0.001837   0.000000  -0.000003   0.000010   0.000369   0.000979
    12  C    0.066465  -0.000135  -0.000319  -0.000319   0.391970   0.012188
    13  O   -0.001787   0.000000   0.000001   0.000001   0.005302  -0.000189
    14  N   -0.000570   0.000006  -0.000001  -0.000001   0.008117  -0.002075
    15  H    0.000077   0.000000   0.000000   0.000000   0.001890   0.000089
    16  C    0.000236   0.000001   0.000000   0.000000   0.003892  -0.000154
    17  H    0.000001   0.000000   0.000000   0.000000   0.000027   0.000000
    18  H   -0.000001   0.000000   0.000000   0.000000  -0.000046   0.000000
    19  H    0.000001   0.000000   0.000000   0.000000   0.000027   0.000000
               7          8          9         10         11         12
     1  C   -0.244694   0.010930  -0.171189  -0.001837  -0.001837   0.066465
     2  H    0.006343  -0.000174   0.001227   0.000000   0.000000  -0.000135
     3  H    0.000558   0.000010  -0.003719   0.000010  -0.000003  -0.000319
     4  H    0.000558   0.000010  -0.003719  -0.000003   0.000010  -0.000319
     5  C   -0.084601   0.022865  -0.727810   0.000371   0.000369   0.391970
     6  O   -0.223076   0.006228  -0.043725   0.000979   0.000979   0.012188
     7  N    7.700232   0.259037   0.272834  -0.049284  -0.049285  -0.054318
     8  H    0.259037   0.316390  -0.052781   0.001776   0.001776   0.018559
     9  C    0.272834  -0.052781  10.703295   0.335444   0.335447  -3.321461
    10  H   -0.049284   0.001776   0.335444   0.496373  -0.036981  -0.002056
    11  H   -0.049285   0.001776   0.335447  -0.036981   0.496375  -0.002059
    12  C   -0.054318   0.018559  -3.321461  -0.002056  -0.002059   7.517594
    13  O    0.020737   0.003848   0.048816   0.000913   0.000913   0.237340
    14  N    0.013940   0.002031  -0.731034   0.015258   0.015259   0.512964
    15  H    0.000052  -0.000004   0.054668  -0.000514  -0.000514  -0.045803
    16  C    0.002655   0.000468  -0.174552   0.002407   0.002407   0.006693
    17  H   -0.000017   0.000000   0.004738   0.000008  -0.000002  -0.002723
    18  H   -0.000020   0.000000  -0.009352  -0.000002  -0.000002  -0.008262
    19  H   -0.000017   0.000000   0.004738  -0.000002   0.000008  -0.002722
              13         14         15         16         17         18
     1  C   -0.001787  -0.000570   0.000077   0.000236   0.000001  -0.000001
     2  H    0.000000   0.000006   0.000000   0.000001   0.000000   0.000000
     3  H    0.000001  -0.000001   0.000000   0.000000   0.000000   0.000000
     4  H    0.000001  -0.000001   0.000000   0.000000   0.000000   0.000000
     5  C    0.005302   0.008117   0.001890   0.003892   0.000027  -0.000046
     6  O   -0.000189  -0.002075   0.000089  -0.000154   0.000000   0.000000
     7  N    0.020737   0.013940   0.000052   0.002655  -0.000017  -0.000020
     8  H    0.003848   0.002031  -0.000004   0.000468   0.000000   0.000000
     9  C    0.048816  -0.731034   0.054668  -0.174552   0.004738  -0.009352
    10  H    0.000913   0.015258  -0.000514   0.002407   0.000008  -0.000002
    11  H    0.000913   0.015259  -0.000514   0.002407  -0.000002  -0.000002
    12  C    0.237340   0.512964  -0.045803   0.006693  -0.002723  -0.008262
    13  O    8.472713  -0.215818   0.009213  -0.026204   0.000026   0.005126
    14  N   -0.215818   7.617766   0.262956   0.185379  -0.040874  -0.038680
    15  H    0.009213   0.262956   0.390102  -0.027672  -0.000936   0.002297
    16  C   -0.026204   0.185379  -0.027672   5.253049   0.383973   0.406997
    17  H    0.000026  -0.040874  -0.000936   0.383973   0.501382  -0.022793
    18  H    0.005126  -0.038680   0.002297   0.406997  -0.022793   0.446083
    19  H    0.000026  -0.040873  -0.000936   0.383972  -0.033698  -0.022793
              19
     1  C    0.000001
     2  H    0.000000
     3  H    0.000000
     4  H    0.000000
     5  C    0.000027
     6  O    0.000000
     7  N   -0.000017
     8  H    0.000000
     9  C    0.004738
    10  H   -0.000002
    11  H    0.000008
    12  C   -0.002722
    13  O    0.000026
    14  N   -0.040873
    15  H   -0.000936
    16  C    0.383972
    17  H   -0.033698
    18  H   -0.022793
    19  H    0.501382
 Mulliken charges:
               1
     1  C   -0.715150
     2  H    0.194827
     3  H    0.231362
     4  H    0.231361
     5  C    0.634945
     6  O   -0.533551
     7  N   -0.571634
     8  H    0.409031
     9  C   -0.521865
    10  H    0.237143
    11  H    0.237141
    12  C    0.676402
    13  O   -0.560977
    14  N   -0.563749
    15  H    0.355034
    16  C   -0.403546
    17  H    0.210889
    18  H    0.241448
    19  H    0.210888
 Sum of Mulliken charges =   0.00000
 Mulliken charges with hydrogens summed into heavy atoms:
               1
     1  C   -0.057599
     5  C    0.634945
     6  O   -0.533551
     7  N   -0.162603
     9  C   -0.047581
    12  C    0.676402
    13  O   -0.560977
    14  N   -0.208715
    16  C    0.259679
 Electronic spatial extent (au):  <R**2>=           2237.0998
 Charge=              0.0000 electrons
 Dipole moment (field-independent basis, Debye):
    X=              2.6291    Y=             -0.5921    Z=              0.0001  Tot=              2.6950
 Quadrupole moment (field-independent basis, Debye-Ang):
   XX=            -37.7414   YY=            -61.7562   ZZ=            -55.4463
   XY=            -18.5618   XZ=              0.0000   YZ=              0.0000
 Traceless Quadrupole moment (field-independent basis, Debye-Ang):
   XX=             13.9066   YY=            -10.1082   ZZ=             -3.7983
   XY=            -18.5618   XZ=              0.0000   YZ=              0.0000
 Octapole moment (field-independent basis, Debye-Ang**2):
  XXX=             56.0495  YYY=             -1.3654  ZZZ=             -0.0001  XYY=             10.1406
  XXY=              9.4677  XXZ=              0.0005  XZZ=             -0.9497  YZZ=             -2.2669
  YYZ=              0.0003  XYZ=              0.0001
 Hexadecapole moment (field-independent basis, Debye-Ang**3):
 XXXX=          -2083.2090 YYYY=           -304.5913 ZZZZ=            -75.0476 XXXY=           -108.3434
 XXXZ=             -0.0001 YYYX=            -55.4179 YYYZ=             -0.0001 ZZZX=             -0.0005
 ZZZY=              0.0000 XXYY=           -512.6884 XXZZ=           -430.3760 YYZZ=            -61.5411
 XXYZ=             -0.0004 YYXZ=              0.0005 ZZXY=              3.2884
 N-N= 4.174282245638D+02 E-N=-1.899255070791D+03  KE= 4.523805025284D+02
 No NMR shielding tensors so no spin-rotation constants.
 Leave Link  601 at Tue Sep 16 15:20:16 2025, MaxMem=    33554432 cpu:         1.7
 (Enter /nexus/posix0/bmm/home/sucerqdl/sw/g09/l701.exe)
 Compute integral first derivatives.
 ... and contract with generalized density number  0.
 PrsmSu:  requested number of processors reduced to:   9 ShMem   1 Linda.
 Leave Link  701 at Tue Sep 16 15:20:16 2025, MaxMem=    33554432 cpu:         1.4
 (Enter /nexus/posix0/bmm/home/sucerqdl/sw/g09/l702.exe)
 L702 exits ... SP integral derivatives will be done elsewhere.
 Leave Link  702 at Tue Sep 16 15:20:17 2025, MaxMem=    33554432 cpu:         0.3
 (Enter /nexus/posix0/bmm/home/sucerqdl/sw/g09/l703.exe)
 Compute integral first derivatives, UseDBF=F ICtDFT=           0.
 Integral derivatives from FoFJK, PRISM(SPDF).
 Calling FoFJK, ICntrl=      2127 FMM=F ISym2X=0 I1Cent= 0 IOpClX= 0 NMat=1 NMatS=1 NMatT=0.
 FoFJK:  IHMeth= 1 ICntrl=    2127 DoSepK=F KAlg= 0 I1Cent=   0 FoldK=F
 IRaf=         0 NMat=   1 IRICut=       1 DoRegI=T DoRafI=F ISym2E= 0.
 FoFCou: FMM=F IPFlag=           0 FMFlag=      100000 FMFlg1=         800
         NFxFlg=           0 DoJE=F BraDBF=F KetDBF=F FulRan=T
         wScrn=  0.000000 ICntrl=    2127 IOpCl=  0 I1Cent=           0 NGrid=           0
         NMat0=    1 NMatS0=      1 NMatT0=    0 NMatD0=    1 NMtDS0=    0 NMtDT0=    0
 Symmetry not used in FoFCou.
 Leave Link  703 at Tue Sep 16 15:20:17 2025, MaxMem=    33554432 cpu:         6.6
 (Enter /nexus/posix0/bmm/home/sucerqdl/sw/g09/l716.exe)
 Dipole        = 1.03437439D+00-2.32947748D-01 3.34842586D-05
 ***** Axes restored to original set *****
 -------------------------------------------------------------------
 Center     Atomic                   Forces (Hartrees/Bohr)
 Number     Number              X              Y              Z
 -------------------------------------------------------------------
      1        6          -0.031020471   -0.061133889   -0.006239421
      2        1           0.000002988    0.000005881    0.000002896
      3        1           0.000014462    0.000022344    0.000005675
      4        1           0.000009576    0.000024928    0.000005661
      5        6           0.000013054    0.000025448    0.000009980
      6        8          -0.000004908   -0.000009325   -0.000007452
      7        7           0.000000738    0.000001235    0.000020212
      8        1          -0.000001472   -0.000002750   -0.000000658
      9        6          -0.000008799   -0.000017310    0.000016347
     10        1          -0.000002874    0.000001381   -0.000007481
     11        1           0.000002857   -0.000001439   -0.000007493
     12        6           0.000009433    0.000018602    0.000002736
     13        8          -0.000001224   -0.000002366    0.000006393
     14        7          -0.000014894   -0.000029390   -0.000001553
     15        1           0.000005254    0.000010205    0.000002410
     16        6           0.031016758    0.061126788    0.006200614
     17        1          -0.000007394   -0.000018768   -0.000004529
     18        1          -0.000002193   -0.000004441    0.000000210
     19        1          -0.000010891   -0.000017134   -0.000004548
 -------------------------------------------------------------------
 Cartesian Forces:  Max     0.061133889 RMS     0.012893307
 -----------------------------------------------------------------------------------------------
                       Internal Coordinate Forces (Hartree/Bohr or radian)
  Cent   Atom   N1       Length/X         N2         Alpha/Y        N3         Beta/Z          J
 -----------------------------------------------------------------------------------------------
      1  C 
      2  H        1   0.000003(     1)
      3  H        1   0.000011(     2)      2  -0.000022(    19)
      4  H        1   0.000011(     3)      2  -0.000022(    20)      3   0.000043(    36)     0
      5  C        1  -0.065208(     4)      2   0.000051(    21)      3   0.000000(    37)     0
      6  O        5   0.000007(     5)      1   0.000025(    22)      2   0.000000(    38)     0
      7  N        5  -0.059234(     6)      1  -0.071269(    23)      6   0.000000(    39)     0
      8  H        7   0.000000(     7)      5   0.000006(    24)      1   0.000000(    40)     0
      9  C        7  -0.061030(     8)      5  -0.023435(    25)      8   0.000000(    41)     0
     10  H        9   0.000002(     9)      7   0.000008(    26)      5   0.000000(    42)     0
     11  H        9   0.000002(    10)      7   0.000008(    27)     10   0.000014(    43)     0
     12  C        9  -0.058758(    11)      7  -0.069759(    28)     10   0.000000(    44)     0
     13  O       12   0.000007(    12)      9   0.000005(    29)      7   0.000000(    45)     0
     14  N       12  -0.059136(    13)      9  -0.042490(    30)     13   0.000000(    46)     0
     15  H       14   0.000000(    14)     12  -0.000022(    31)      9   0.000000(    47)     0
     16  C       14  -0.066657(    15)     12  -0.052282(    32)     15   0.000000(    48)     0
     17  H       16   0.000011(    16)     14   0.000035(    33)     12   0.000000(    49)     0
     18  H       16   0.000001(    17)     14   0.000010(    34)     17   0.000000(    50)     0
     19  H       16   0.000011(    18)     14   0.000035(    35)     17   0.000011(    51)     0
 -----------------------------------------------------------------------------------------------
 Internal  Forces:  Max     0.071268627 RMS     0.027264765
 Leave Link  716 at Tue Sep 16 15:20:17 2025, MaxMem=    33554432 cpu:         0.5
 (Enter /nexus/posix0/bmm/home/sucerqdl/sw/g09/l103.exe)

 GradGradGradGradGradGradGradGradGradGradGradGradGradGradGradGradGradGrad
 Berny optimization.
 Search for a local minimum.
 Step number   1 out of a maximum of    2
 All quantities printed in internal units (Hartrees-Bohrs-Radians)
 Second derivative matrix not updated -- first step.
 ITU=  0
     Eigenvalues ---    0.01052   0.01246   0.01280   0.01577   0.02385
     Eigenvalues ---    0.02810   0.05011   0.05348   0.06464   0.08210
     Eigenvalues ---    0.08853   0.10056   0.11043   0.13233   0.14136
     Eigenvalues ---    0.14747   0.16783   0.19879   0.19881   0.19974
     Eigenvalues ---    0.21758   0.22691   0.24163   0.24831   0.25000
     Eigenvalues ---    0.25003   0.27049   0.29722   0.33891   0.33891
     Eigenvalues ---    0.34400   0.34573   0.34573   0.34579   0.34630
     Eigenvalues ---    0.34630   0.36133   0.36985   0.37751   0.40214
     Eigenvalues ---    0.41097   0.41135   0.41529   0.45338   0.45568
     Eigenvalues ---    0.53121   0.53124   0.75000   0.75003   0.86208
     Eigenvalues ---    0.89137
 Quadratic step=7.750D-01 exceeds max=3.000D-01 adjusted using Lamda=-3.590D-01.
 Angle between NR and scaled steps=  12.64 degrees.
 Angle between quadratic step and forces=  11.40 degrees.
 Linear search not attempted -- first point.
 Variable       Old X    -DE/DX   Delta X   Delta X   Delta X     New X
                                 (Linear)    (Quad)   (Total)
    R2        2.06660   0.00000   0.00000   0.00000   0.00000   2.06660
    R3        2.06373   0.00001   0.00000   0.00002   0.00002   2.06375
    R4        2.06373   0.00001   0.00000   0.00002   0.00002   2.06375
    R5        3.26302  -0.06521   0.00000  -0.12377  -0.12377   3.13925
    R6        2.34731   0.00001   0.00000   0.00001   0.00001   2.34732
    R7        2.71264  -0.05923   0.00000  -0.07782  -0.07782   2.63482
    R8        1.91322   0.00000   0.00000   0.00000   0.00000   1.91322
    R9        2.94265  -0.06103   0.00000  -0.09695  -0.09695   2.84571
   R10        2.07515   0.00000   0.00000   0.00000   0.00000   2.07515
   R11        2.07515   0.00000   0.00000   0.00000   0.00000   2.07515
   R12        3.14024  -0.05876   0.00000  -0.10516  -0.10516   3.03508
   R13        2.33333   0.00001   0.00000   0.00001   0.00001   2.33334
   R14        2.70090  -0.05914   0.00000  -0.07680  -0.07680   2.62409
   R15        1.91585   0.00000   0.00000   0.00000   0.00000   1.91585
   R16        3.08246  -0.06666   0.00000  -0.11560  -0.11560   2.96686
   R17        2.06280   0.00001   0.00000   0.00002   0.00002   2.06281
   R18        2.06363   0.00000   0.00000   0.00000   0.00000   2.06364
   R19        2.06280   0.00001   0.00000   0.00002   0.00002   2.06281
    A3        1.95675  -0.00002   0.00000  -0.00005  -0.00005   1.95670
    A4        1.95674  -0.00002   0.00000  -0.00004  -0.00004   1.95670
    A5        1.98496   0.00005   0.00000   0.00011   0.00011   1.98507
    A6        1.95211   0.00003   0.00000   0.02641   0.02641   1.97852
    A7        2.28545  -0.07127   0.00000  -0.09064  -0.09064   2.19480
    A8        2.11640   0.00001   0.00000   0.00756   0.00756   2.12396
    A9        2.13059  -0.02344   0.00000  -0.03206  -0.03206   2.09853
   A10        1.86121   0.00001   0.00000   0.01013   0.01013   1.87134
   A11        1.86121   0.00001   0.00000   0.00915   0.00915   1.87036
   A12        2.11631  -0.06976   0.00000  -0.10163  -0.10163   2.01469
   A13        2.08123   0.00001   0.00000   0.01574   0.01574   2.09697
   A14        2.05973  -0.04249   0.00000  -0.05405  -0.05405   2.00568
   A15        1.99717  -0.00002   0.00000   0.01681   0.01681   2.01397
   A16        2.35705  -0.05228   0.00000  -0.07148  -0.07148   2.28558
   A17        1.85735   0.00003   0.00000   0.00008   0.00008   1.85743
   A18        1.86458   0.00001   0.00000   0.00001   0.00001   1.86459
   A19        1.85735   0.00003   0.00000   0.00008   0.00008   1.85743
    D4       -2.20248   0.00004   0.00000   0.00010   0.00010  -2.20238
    D5        2.04035   0.00000   0.00000   0.00002   0.00002   2.04037
    D6       -3.14156   0.00000   0.00000   0.00002   0.00002  -3.14155
    D7       -3.14159   0.00000   0.00000   0.00001   0.00001  -3.14158
    D8       -0.00001   0.00000   0.00000   0.00001   0.00001   0.00000
    D9       -3.14159   0.00000   0.00000   0.00008   0.00008  -3.14151
   D10        0.99830   0.00000   0.00000   0.00018   0.00018   0.99848
   D11       -1.99662   0.00001   0.00000  -0.01157  -0.01157  -2.00819
   D12        2.14328   0.00000   0.00000  -0.00174  -0.00174   2.14154
   D13       -0.00001   0.00000   0.00000  -0.00007  -0.00007  -0.00008
   D14        3.14159   0.00000   0.00000  -0.00002  -0.00002   3.14157
   D15        0.00000   0.00000   0.00000   0.00001   0.00001   0.00001
   D16        3.14159   0.00000   0.00000  -0.00002  -0.00002   3.14157
   D17       -2.08733   0.00000   0.00000   0.00000   0.00000  -2.08733
   D18        2.08737   0.00000   0.00000  -0.00001  -0.00001   2.08736
   D19       -2.10845   0.00001   0.00000  -0.00004  -0.00004  -2.10848
         Item               Value     Threshold  Converged?
 Maximum Force            0.071269     0.000450     NO 
 RMS     Force            0.027265     0.000300     NO 
 Maximum Displacement     0.123769     0.001800     NO 
 RMS     Displacement     0.042079     0.001200     NO 
 Predicted change in Energy=-4.488972D-02
 GradGradGradGradGradGradGradGradGradGradGradGradGradGradGradGradGradGrad

 Leave Link  103 at Tue Sep 16 15:20:17 2025, MaxMem=    33554432 cpu:         0.3
 (Enter /nexus/posix0/bmm/home/sucerqdl/sw/g09/l9999.exe)
 1\1\GINC-SLURM-ORBIT-CPU2\Force\RBMK\6-31+G\C5H10N2O2\SUCERQDL\16-Sep-
 2025\1\\#P bmk/6-31+g force\\Gaussian input prepared by ASE\\0,1\C\H,1
 ,R2\H,1,R3,2,A3\H,1,R4,2,A4,3,D4,0\C,1,R5,2,A5,3,D5,0\O,5,R6,1,A6,2,D6
 ,0\N,5,R7,1,A7,6,D7,0\H,7,R8,5,A8,1,D8,0\C,7,R9,5,A9,8,D9,0\H,9,R10,7,
 A10,5,D10,0\H,9,R11,7,A11,10,D11,0\C,9,R12,7,A12,10,D12,0\O,12,R13,9,A
 13,7,D13,0\N,12,R14,9,A14,13,D14,0\H,14,R15,12,A15,9,D15,0\C,14,R16,12
 ,A16,15,D16,0\H,16,R17,14,A17,12,D17,0\H,16,R18,14,A18,17,D18,0\H,16,R
 19,14,A19,17,D19,0\\R2=1.09359593\R3=1.09207928\R4=1.09207958\R5=1.726
 71564\R6=1.24214524\R7=1.4354656\R8=1.01243028\R9=1.55718437\R10=1.098
 12107\R11=1.09812114\R12=1.66174301\R13=1.23474659\R14=1.42925214\R15=
 1.01382609\R16=1.63116909\R17=1.09158612\R18=1.09202802\R19=1.09158593
 \A3=112.11332938\A4=112.11318923\A5=113.72956078\A6=111.84745749\A7=13
 0.94649538\A8=121.26071091\A9=122.07376608\A10=106.63940846\A11=106.63
 947946\A12=121.25590538\A13=119.24581105\A14=118.01370081\A15=114.4291
 3131\A16=135.04912517\A17=106.41842912\A18=106.83268766\A19=106.418098
 62\D4=-126.1929609\D5=116.90346328\D6=-179.99831951\D7=-179.99985954\D
 8=-0.00061559\D9=-179.99974921\D10=57.19830493\D11=-114.39816038\D12=1
 22.80094185\D13=-0.00044625\D14=180.\D15=-0.00009504\D16=179.99994058\
 D17=-119.59531462\D18=119.5975522\D19=-120.80506376\\Version=ES64L-G09
 RevD.01\State=1-A\HF=-456.0789617\RMSD=3.162e-09\RMSF=1.289e-02\Dipole
 =-0.4694546,-0.925113,-0.219028\Quadrupole=-0.0536449,7.9364884,-7.882
 8435,5.459832,6.133886,12.0881807\PG=C01 [X(C5H10N2O2)]\\@


 MICRO CREDO - NEVER TRUST A COMPUTER BIGGER
               BIGGER THAN YOU CAN LIFT.
 Job cpu time:       0 days  0 hours  1 minutes 53.7 seconds.
 File lengths (MBytes):  RWF=    132 Int=      0 D2E=      0 Chk=      3 Scr=      2
 Normal termination of Gaussian 09 at Tue Sep 16 15:20:17 2025.
