 Entering Gaussian System, Link 0=g09
 Input=G-forces01.com
 Output=G-forces01.log
 Initial command:
 /nexus/posix0/bmm/home/sucerqdl/sw/g09/l1.exe "/nexus/posix0/bmm/home/sucerqdl/sw/g09/g09_scratch/Gau-3113097.inp" -scrdir="/nexus/posix0/bmm/home/sucerqdl/sw/g09/g09_scratch/"
 Entering Link 1 = /nexus/posix0/bmm/home/sucerqdl/sw/g09/l1.exe PID=   3113103.
  
 Copyright (c) 1988,1990,1992,1993,1995,1998,2003,2009,2013,
            Gaussian, Inc.  All Rights Reserved.
  
 This is part of the Gaussian(R) 09 program.  It is based on
 the Gaussian(R) 03 system (copyright 2003, Gaussian, Inc.),
 the Gaussian(R) 98 system (copyright 1998, Gaussian, Inc.),
 the Gaussian(R) 94 system (copyright 1995, Gaussian, Inc.),
 the Gaussian 92(TM) system (copyright 1992, Gaussian, Inc.),
 the Gaussian 90(TM) system (copyright 1990, Gaussian, Inc.),
 the Gaussian 88(TM) system (copyright 1988, Gaussian, Inc.),
 the Gaussian 86(TM) system (copyright 1986, Carnegie Mellon
 University), and the Gaussian 82(TM) system (copyright 1983,
 Carnegie Mellon University). Gaussian is a federally registered
 trademark of Gaussian, Inc.
  
 This software contains proprietary and confidential information,
 including trade secrets, belonging to Gaussian, Inc.
  
 This software is provided under written license and may be
 used, copied, transmitted, or stored only in accord with that
 written license.
  
 The following legend is applicable only to US Government
 contracts under FAR:
  
                    RESTRICTED RIGHTS LEGEND
  
 Use, reproduction and disclosure by the US Government is
 subject to restrictions as set forth in subparagraphs (a)
 and (c) of the Commercial Computer Software - Restricted
 Rights clause in FAR 52.227-19.
  
 Gaussian, Inc.
 340 Quinnipiac St., Bldg. 40, Wallingford CT 06492
  
  
 ---------------------------------------------------------------
 Warning -- This program may not be used in any manner that
 competes with the business of Gaussian, Inc. or will provide
 assistance to any competitor of Gaussian, Inc.  The licensee
 of this program is prohibited from giving any competitor of
 Gaussian, Inc. access to this program.  By using this program,
 the user acknowledges that Gaussian, Inc. is engaged in the
 business of creating and licensing software in the field of
 computational chemistry and represents and warrants to the
 licensee that it is not a competitor of Gaussian, Inc. and that
 it will not use this program in any manner prohibited above.
 ---------------------------------------------------------------
  

 Cite this work as:
 Gaussian 09, Revision D.01,
 M. J. Frisch, G. W. Trucks, H. B. Schlegel, G. E. Scuseria, 
 M. A. Robb, J. R. Cheeseman, G. Scalmani, V. Barone, B. Mennucci, 
 G. A. Petersson, H. Nakatsuji, M. Caricato, X. Li, H. P. Hratchian, 
 A. F. Izmaylov, J. Bloino, G. Zheng, J. L. Sonnenberg, M. Hada, 
 M. Ehara, K. Toyota, R. Fukuda, J. Hasegawa, M. Ishida, T. Nakajima, 
 Y. Honda, O. Kitao, H. Nakai, T. Vreven, J. A. Montgomery, Jr., 
 J. E. Peralta, F. Ogliaro, M. Bearpark, J. J. Heyd, E. Brothers, 
 K. N. Kudin, V. N. Staroverov, T. Keith, R. Kobayashi, J. Normand, 
 K. Raghavachari, A. Rendell, J. C. Burant, S. S. Iyengar, J. Tomasi, 
 M. Cossi, N. Rega, J. M. Millam, M. Klene, J. E. Knox, J. B. Cross, 
 V. Bakken, C. Adamo, J. Jaramillo, R. Gomperts, R. E. Stratmann, 
 O. Yazyev, A. J. Austin, R. Cammi, C. Pomelli, J. W. Ochterski, 
 R. L. Martin, K. Morokuma, V. G. Zakrzewski, G. A. Voth, 
 P. Salvador, J. J. Dannenberg, S. Dapprich, A. D. Daniels, 
 O. Farkas, J. B. Foresman, J. V. Ortiz, J. Cioslowski, 
 and D. J. Fox, Gaussian, Inc., Wallingford CT, 2013.
 
 ******************************************
 Gaussian 09:  ES64L-G09RevD.01 24-Apr-2013
                16-Sep-2025 
 ******************************************
 %chk=G-forces01
 %NProcShared=16
 Will use up to   16 processors via shared memory.
 -------------------
 #P bmk/6-31+g force
 -------------------
 1/10=7,30=1,38=1/1,3;
 2/12=2,17=6,18=5,40=1/2;
 3/5=1,6=6,7=10,11=2,16=1,25=1,30=1,71=1,74=-34/1,2,3;
 4//1;
 5/5=2,38=5/2;
 6/7=2,8=2,9=2,10=2,28=1/1;
 7/29=1/1,2,3,16;
 1/10=7,30=1/3;
 99//99;
 Leave Link    1 at Tue Sep 16 16:00:09 2025, MaxMem=           0 cpu:         1.2
 (Enter /nexus/posix0/bmm/home/sucerqdl/sw/g09/l101.exe)
 ------------------------------
 Gaussian input prepared by ASE
 ------------------------------
 Symbolic Z-matrix:
 Charge =  0 Multiplicity = 1
 C
 H                    1    R2
 H                    1    R3       2    A3
 H                    1    R4       2    A4       3    D4       0
 C                    1    R5       2    A5       3    D5       0
 O                    5    R6       1    A6       2    D6       0
 N                    5    R7       1    A7       6    D7       0
 H                    7    R8       5    A8       1    D8       0
 C                    7    R9       5    A9       8    D9       0
 H                    9    R10      7    A10      5    D10      0
 H                    9    R11      7    A11      10   D11      0
 C                    9    R12      7    A12      10   D12      0
 O                    12   R13      9    A13      7    D13      0
 N                    12   R14      9    A14      13   D14      0
 H                    14   R15      12   A15      9    D15      0
 C                    14   R16      12   A16      15   D16      0
 H                    16   R17      14   A17      12   D17      0
 H                    16   R18      14   A18      17   D18      0
 H                    16   R19      14   A19      17   D19      0
       Variables:
  R2                    1.09599                  
  R3                    1.09613                  
  R4                    1.09614                  
  R5                    1.53493                  
  R6                    1.24832                  
  R7                    1.36894                  
  R8                    1.01211                  
  R9                    1.45973                  
  R10                   1.10089                  
  R11                   1.1009                   
  R12                   1.54112                  
  R13                   1.24415                  
  R14                   1.36465                  
  R15                   1.00971                  
  R16                   1.47652                  
  R17                   1.09315                  
  R18                   1.09642                  
  R19                   1.09641                  
  A3                  109.51454                  
  A4                  109.51402                  
  A5                  112.95336                  
  A6                  120.37467                  
  A7                  119.25805                  
  A8                  123.28319                  
  A9                  119.81174                  
  A10                 109.60757                  
  A11                 109.60843                  
  A12                 111.45408                  
  A13                 121.79017                  
  A14                 115.08969                  
  A15                 118.3972                   
  A16                 124.03579                  
  A17                 108.29583                  
  A18                 110.31658                  
  A19                 110.32353                  
  D4                 -118.43317                  
  D5                  120.7836                   
  D6                 -179.99203                  
  D7                 -179.9988                   
  D8                   -0.00261                  
  D9                 -179.99922                  
  D10                  58.3216                   
  D11                -116.6657                   
  D12                 121.66827                  
  D13                   0.01234                  
  D14                 179.99932                  
  D15                   0.0066                   
  D16                 179.99292                  
  D17                -179.95451                  
  D18                 120.08536                  
  D19                -120.08631                  
 
 NAtoms=     19 NQM=       19 NQMF=       0 NMMI=      0 NMMIF=      0
                NMic=       0 NMicF=      0.
                    Isotopes and Nuclear Properties:
 (Nuclear quadrupole moments (NQMom) in fm**2, nuclear magnetic moments (NMagM)
  in nuclear magnetons)

  Atom         1           2           3           4           5           6           7           8           9          10
 IAtWgt=          12           1           1           1          12          16          14           1          12           1
 AtmWgt=  12.0000000   1.0078250   1.0078250   1.0078250  12.0000000  15.9949146  14.0030740   1.0078250  12.0000000   1.0078250
 NucSpn=           0           1           1           1           0           0           2           1           0           1
 AtZEff=   0.0000000   0.0000000   0.0000000   0.0000000   0.0000000   0.0000000   0.0000000   0.0000000   0.0000000   0.0000000
 NQMom=    0.0000000   0.0000000   0.0000000   0.0000000   0.0000000   0.0000000   2.0440000   0.0000000   0.0000000   0.0000000
 NMagM=    0.0000000   2.7928460   2.7928460   2.7928460   0.0000000   0.0000000   0.4037610   2.7928460   0.0000000   2.7928460
 AtZNuc=   6.0000000   1.0000000   1.0000000   1.0000000   6.0000000   8.0000000   7.0000000   1.0000000   6.0000000   1.0000000

  Atom        11          12          13          14          15          16          17          18          19
 IAtWgt=           1          12          16          14           1          12           1           1           1
 AtmWgt=   1.0078250  12.0000000  15.9949146  14.0030740   1.0078250  12.0000000   1.0078250   1.0078250   1.0078250
 NucSpn=           1           0           0           2           1           0           1           1           1
 AtZEff=   0.0000000   0.0000000   0.0000000   0.0000000   0.0000000   0.0000000   0.0000000   0.0000000   0.0000000
 NQMom=    0.0000000   0.0000000   0.0000000   2.0440000   0.0000000   0.0000000   0.0000000   0.0000000   0.0000000
 NMagM=    2.7928460   0.0000000   0.0000000   0.4037610   2.7928460   0.0000000   2.7928460   2.7928460   2.7928460
 AtZNuc=   1.0000000   6.0000000   8.0000000   7.0000000   1.0000000   6.0000000   1.0000000   1.0000000   1.0000000
 Leave Link  101 at Tue Sep 16 16:00:09 2025, MaxMem=    33554432 cpu:         2.3
 (Enter /nexus/posix0/bmm/home/sucerqdl/sw/g09/l103.exe)

 GradGradGradGradGradGradGradGradGradGradGradGradGradGradGradGradGradGrad
 Berny optimization.
 Initialization pass.
                       ----------------------------
                       !    Initial Parameters    !
                       ! (Angstroms and Degrees)  !
 ----------------------                            ----------------------
 !      Name          Value   Derivative information (Atomic Units)     !
 ------------------------------------------------------------------------
 !       R2          1.096    estimate D2E/DX2                          !
 !       R3          1.0961   estimate D2E/DX2                          !
 !       R4          1.0961   estimate D2E/DX2                          !
 !       R5          1.5349   estimate D2E/DX2                          !
 !       R6          1.2483   estimate D2E/DX2                          !
 !       R7          1.3689   estimate D2E/DX2                          !
 !       R8          1.0121   estimate D2E/DX2                          !
 !       R9          1.4597   estimate D2E/DX2                          !
 !       R10         1.1009   estimate D2E/DX2                          !
 !       R11         1.1009   estimate D2E/DX2                          !
 !       R12         1.5411   estimate D2E/DX2                          !
 !       R13         1.2441   estimate D2E/DX2                          !
 !       R14         1.3646   estimate D2E/DX2                          !
 !       R15         1.0097   estimate D2E/DX2                          !
 !       R16         1.4765   estimate D2E/DX2                          !
 !       R17         1.0931   estimate D2E/DX2                          !
 !       R18         1.0964   estimate D2E/DX2                          !
 !       R19         1.0964   estimate D2E/DX2                          !
 !       A3        109.5145   estimate D2E/DX2                          !
 !       A4        109.514    estimate D2E/DX2                          !
 !       A5        112.9534   estimate D2E/DX2                          !
 !       A6        120.3747   estimate D2E/DX2                          !
 !       A7        119.2581   estimate D2E/DX2                          !
 !       A8        123.2832   estimate D2E/DX2                          !
 !       A9        119.8117   estimate D2E/DX2                          !
 !       A10       109.6076   estimate D2E/DX2                          !
 !       A11       109.6084   estimate D2E/DX2                          !
 !       A12       111.4541   estimate D2E/DX2                          !
 !       A13       121.7902   estimate D2E/DX2                          !
 !       A14       115.0897   estimate D2E/DX2                          !
 !       A15       118.3972   estimate D2E/DX2                          !
 !       A16       124.0358   estimate D2E/DX2                          !
 !       A17       108.2958   estimate D2E/DX2                          !
 !       A18       110.3166   estimate D2E/DX2                          !
 !       A19       110.3235   estimate D2E/DX2                          !
 !       D4       -118.4332   estimate D2E/DX2                          !
 !       D5        120.7836   estimate D2E/DX2                          !
 !       D6       -179.992    estimate D2E/DX2                          !
 !       D7       -179.9988   estimate D2E/DX2                          !
 !       D8         -0.0026   estimate D2E/DX2                          !
 !       D9       -179.9992   estimate D2E/DX2                          !
 !       D10        58.3216   estimate D2E/DX2                          !
 !       D11      -116.6657   estimate D2E/DX2                          !
 !       D12       121.6683   estimate D2E/DX2                          !
 !       D13         0.0123   estimate D2E/DX2                          !
 !       D14       179.9993   estimate D2E/DX2                          !
 !       D15         0.0066   estimate D2E/DX2                          !
 !       D16       179.9929   estimate D2E/DX2                          !
 !       D17      -179.9545   estimate D2E/DX2                          !
 !       D18       120.0854   estimate D2E/DX2                          !
 !       D19      -120.0863   estimate D2E/DX2                          !
 ------------------------------------------------------------------------
 Trust Radius=3.00D-01 FncErr=1.00D-07 GrdErr=1.00D-07
 Number of steps in this run=      2 maximum allowed number of steps=      2.
 GradGradGradGradGradGradGradGradGradGradGradGradGradGradGradGradGradGrad

 Leave Link  103 at Tue Sep 16 16:00:09 2025, MaxMem=    33554432 cpu:         0.5
 (Enter /nexus/posix0/bmm/home/sucerqdl/sw/g09/l202.exe)
                          Input orientation:                          
 ---------------------------------------------------------------------
 Center     Atomic      Atomic             Coordinates (Angstroms)
 Number     Number       Type             X           Y           Z
 ---------------------------------------------------------------------
      1          6           0        0.000000    0.000000    0.000000
      2          1           0        0.000000    0.000000    1.095992
      3          1           0        1.033169    0.000000   -0.366159
      4          1           0       -0.491929    0.908545   -0.366151
      5          6           0       -0.723373   -1.214260   -0.598595
      6          8           0       -0.805766   -1.352858   -1.836461
      7          7           0       -1.277219   -2.143577    0.240221
      8          1           0       -1.236620   -2.075221    1.249198
      9          6           0       -1.967970   -3.302994   -0.316030
     10          1           0       -1.278345   -3.869916   -0.960218
     11          1           0       -2.794925   -2.966445   -0.960119
     12          6           0       -2.514401   -4.220296    0.795292
     13          8           0       -2.356669   -3.955187    2.000590
     14          7           0       -3.175519   -5.330472    0.356323
     15          1           0       -3.261802   -5.475745   -0.639151
     16          6           0       -3.777374   -6.340901    1.249032
     17          1           0       -4.237565   -7.115339    0.629802
     18          1           0       -3.008862   -6.788309    1.890391
     19          1           0       -4.538101   -5.878688    1.889171
 ---------------------------------------------------------------------
                    Distance matrix (angstroms):
                    1          2          3          4          5
     1  C    0.000000
     2  H    1.095992   0.000000
     3  H    1.096134   1.790342   0.000000
     4  H    1.096136   1.790338   1.775212   0.000000
     5  C    1.534931   2.206654   2.147998   2.147999   0.000000
     6  O    2.419106   3.328477   2.715455   2.715557   1.248323
     7  N    2.506775   2.637908   3.209442   3.209333   1.368937
     8  H    2.719608   2.420587   3.473883   3.473727   2.102145
     9  C    3.857791   4.095910   4.463084   4.462989   2.447789
    10  H    4.187175   4.564911   4.546675   4.879043   2.737019
    11  H    4.187270   4.564975   4.879231   4.546663   2.737185
    12  C    4.976504   4.921740   5.634280   5.634213   3.766557
    13  O    5.019936   4.692088   5.721539   5.721417   4.115349
    14  N    6.214887   6.248597   6.830005   6.830005   4.885497
    15  H    6.405595   6.605592   6.964559   6.964617   4.960395
    16  C    7.485697   7.382344   8.121403   8.121418   6.246846
    17  H    8.305520   8.294718   8.910703   8.910917   6.977194
    18  H    7.662112   7.467627   8.216518   8.406456   6.518322
    19  H    7.663047   7.468766   8.407409   8.217330   6.519050
                    6          7          8          9         10
     6  O    0.000000
     7  N    2.271588   0.000000
     8  H    3.198239   1.012105   0.000000
     9  C    2.732299   1.459725   2.119490   0.000000
    10  H    2.706790   2.102689   2.846786   1.100892   0.000000
    11  H    2.707100   2.102702   2.846696   1.100895   1.765298
    12  C    4.250618   2.480218   2.537735   1.541124   2.175411
    13  O    4.888801   2.747006   2.313735   2.437862   3.152211
    14  N    5.123030   3.711242   3.892713   2.453752   2.732356
    15  H    4.946095   3.976833   4.385292   2.549364   2.572133
    16  C    6.575050   4.988587   4.965023   3.866813   4.151107
    17  H    7.146040   5.799469   5.898484   4.536479   4.670965
    18  H    6.948898   5.224479   5.075940   4.254312   4.431442
    19  H    6.949373   5.225269   5.076977   4.254725   4.772859
                   11         12         13         14         15
    11  H    0.000000
    12  C    2.175385   0.000000
    13  O    3.152059   1.244149   0.000000
    14  N    2.732489   1.364647   2.294676   0.000000
    15  H    2.572465   2.047532   3.177986   1.009712   0.000000
    16  C    4.151205   2.509571   2.876608   1.476525   2.139987
    17  H    4.671443   3.373123   3.924715   2.094871   2.291425
    18  H    4.772611   2.835212   2.909309   2.122835   2.861011
    19  H    4.431509   2.835877   2.910483   2.122921   2.860719
                   16         17         18         19
    16  C    0.000000
    17  H    1.093149   0.000000
    18  H    1.096415   1.790459   0.000000
    19  H    1.096415   1.790430   1.779322   0.000000
 Stoichiometry    C5H10N2O2
 Framework group  C1[X(C5H10N2O2)]
 Deg. of freedom    51
 Full point group                 C1      NOp   1
 Largest Abelian subgroup         C1      NOp   1
 Largest concise Abelian subgroup C1      NOp   1
                         Standard orientation:                         
 ---------------------------------------------------------------------
 Center     Atomic      Atomic             Coordinates (Angstroms)
 Number     Number       Type             X           Y           Z
 ---------------------------------------------------------------------
      1          6           0       -3.547869    0.816328   -0.000152
      2          1           0       -3.236656    1.867206   -0.000284
      3          1           0       -4.158856    0.615279   -0.887724
      4          1           0       -4.158837    0.615506    0.887488
      5          6           0       -2.362624   -0.158969   -0.000040
      6          8           0       -2.559521   -1.391666   -0.000036
      7          7           0       -1.087130    0.338124    0.000080
      8          1           0       -0.876856    1.328145    0.000061
      9          6           0        0.048954   -0.578452    0.000228
     10          1           0       -0.005395   -1.234311   -0.882301
     11          1           0       -0.005350   -1.233999    0.882996
     12          6           0        1.388291    0.183939    0.000093
     13          8           0        1.434757    1.427219    0.000112
     14          7           0        2.502574   -0.603865   -0.000033
     15          1           0        2.381913   -1.606341   -0.000131
     16          6           0        3.883747   -0.081861   -0.000184
     17          1           0        4.571681   -0.931402   -0.001087
     18          1           0        4.057275    0.535530   -0.889478
     19          1           0        4.058091    0.534240    0.889843
 ---------------------------------------------------------------------
 Rotational constants (GHZ):      5.0225597      0.6517722      0.5832375
 Leave Link  202 at Tue Sep 16 16:00:09 2025, MaxMem=    33554432 cpu:         0.2
 (Enter /nexus/posix0/bmm/home/sucerqdl/sw/g09/l301.exe)
 Standard basis: 6-31+G (6D, 7F)
 Ernie: Thresh=  0.10000D-02 Tol=  0.10000D-05 Strict=F.
 There are   137 symmetry adapted cartesian basis functions of A   symmetry.
 There are   137 symmetry adapted basis functions of A   symmetry.
   137 basis functions,   274 primitive gaussians,   137 cartesian basis functions
    35 alpha electrons       35 beta electrons
       nuclear repulsion energy       443.0575745612 Hartrees.
 IExCor= 3226 DFT=T Ex+Corr=BMK ExCW=0 ScaHFX=  0.420000
 ScaDFX=  1.000000  1.000000  1.000000  1.000000 ScalE2=  1.000000  1.000000
 IRadAn=      0 IRanWt=     -1 IRanGd=            0 ICorTp=0 IEmpDi=  4
 NAtoms=   19 NActive=   19 NUniq=   19 SFac= 1.00D+00 NAtFMM=   60 NAOKFM=F Big=F
 Integral buffers will be    131072 words long.
 Raffenetti 2 integral format.
 Two-electron integral symmetry is turned on.
 Leave Link  301 at Tue Sep 16 16:00:09 2025, MaxMem=    33554432 cpu:         1.1
 (Enter /nexus/posix0/bmm/home/sucerqdl/sw/g09/l302.exe)
 NPDir=0 NMtPBC=     1 NCelOv=     1 NCel=       1 NClECP=     1 NCelD=      1
         NCelK=      1 NCelE2=     1 NClLst=     1 CellRange=     0.0.
 One-electron integrals computed using PRISM.
 PrsmSu:  requested number of processors reduced to:   9 ShMem   1 Linda.
 NBasis=   137 RedAO= T EigKep=  2.00D-05  NBF=   137
 NBsUse=   137 1.00D-06 EigRej= -1.00D+00 NBFU=   137
 Precomputing XC quadrature grid using
 IXCGrd= 4 IRadAn=           0 IRanWt=          -1 IRanGd=           0 AccXCQ= 0.00D+00.
 Generated NRdTot=       0 NPtTot=           0 NUsed=           0 NTot=          32
 NSgBfM=   137   137   137   137   137 MxSgAt=    19 MxSgA2=    19.
 Leave Link  302 at Tue Sep 16 16:00:10 2025, MaxMem=    33554432 cpu:         3.0
 (Enter /nexus/posix0/bmm/home/sucerqdl/sw/g09/l303.exe)
 DipDrv:  MaxL=1.
 Leave Link  303 at Tue Sep 16 16:00:10 2025, MaxMem=    33554432 cpu:         0.8
 (Enter /nexus/posix0/bmm/home/sucerqdl/sw/g09/l401.exe)
 ExpMin= 4.38D-02 ExpMax= 5.48D+03 ExpMxC= 8.25D+02 IAcc=2 IRadAn=         4 AccDes= 0.00D+00
 Harris functional with IExCor= 1009 and IRadAn=       4 diagonalized for initial guess.
 HarFok:  IExCor= 1009 AccDes= 0.00D+00 IRadAn=         4 IDoV= 1 UseB2=F ITyADJ=14
 ICtDFT=  3500011 ScaDFX=  1.000000  1.000000  1.000000  1.000000
 FoFCou: FMM=F IPFlag=           0 FMFlag=      100000 FMFlg1=           0
         NFxFlg=           0 DoJE=T BraDBF=F KetDBF=T FulRan=T
         wScrn=  0.000000 ICntrl=     500 IOpCl=  0 I1Cent=   200000004 NGrid=           0
         NMat0=    1 NMatS0=      1 NMatT0=    0 NMatD0=    1 NMtDS0=    0 NMtDT0=    0
 Petite list used in FoFCou.
 Harris En= -456.013137732816    
 JPrj=0 DoOrth=F DoCkMO=F.
 Leave Link  401 at Tue Sep 16 16:00:10 2025, MaxMem=    33554432 cpu:         4.1
 (Enter /nexus/posix0/bmm/home/sucerqdl/sw/g09/l502.exe)
 Closed shell SCF:
 Using DIIS extrapolation, IDIIS=  1040.
 Integral symmetry usage will be decided dynamically.
 IVT=       78102 IEndB=       78102 NGot=    33554432 MDV=    33511877
 LenX=    33511877 LenY=    33492667
 Requested convergence on RMS density matrix=1.00D-08 within 128 cycles.
 Requested convergence on MAX density matrix=1.00D-06.
 Requested convergence on             energy=1.00D-06.
 No special actions if energy rises.
 Fock matrices will be formed incrementally for  20 cycles.

 Cycle   1  Pass 1  IDiag  1:
 FoFJK:  IHMeth= 1 ICntrl=       0 DoSepK=F KAlg= 0 I1Cent=   0 FoldK=F
 IRaf= 910000000 NMat=   1 IRICut=       1 DoRegI=T DoRafI=F ISym2E= 0.
 FoFCou: FMM=F IPFlag=           0 FMFlag=      100000 FMFlg1=           0
         NFxFlg=           0 DoJE=F BraDBF=F KetDBF=F FulRan=T
         wScrn=  0.000000 ICntrl=       0 IOpCl=  0 I1Cent=           0 NGrid=           0
         NMat0=    1 NMatS0=      1 NMatT0=    0 NMatD0=    1 NMtDS0=    0 NMtDT0=    0
 Symmetry not used in FoFCou.
 E= -455.923279850636    
 DIIS: error= 3.66D-02 at cycle   1 NSaved=   1.
 NSaved= 1 IEnMin= 1 EnMin= -455.923279850636     IErMin= 1 ErrMin= 3.66D-02
 ErrMax= 3.66D-02  0.00D+00 EMaxC= 1.00D-01 BMatC= 2.63D-01 BMatP= 2.63D-01
 IDIUse=3 WtCom= 6.34D-01 WtEn= 3.66D-01
 Coeff-Com:  0.100D+01
 Coeff-En:   0.100D+01
 Coeff:      0.100D+01
 Gap=     0.325 Goal=   None    Shift=    0.000
 GapD=    0.325 DampG=1.000 DampE=0.500 DampFc=0.5000 IDamp=-1.
 Damping current iteration by 5.00D-01
 RMSDP=3.43D-02 MaxDP=1.94D+00              OVMax= 2.69D-01

 Cycle   2  Pass 1  IDiag  1:
 RMSU=  1.34D-02    CP:  1.21D+00
 E= -455.997960328838     Delta-E=       -0.074680478202 Rises=F Damp=T
 DIIS: error= 1.52D-02 at cycle   2 NSaved=   2.
 NSaved= 2 IEnMin= 2 EnMin= -455.997960328838     IErMin= 2 ErrMin= 1.52D-02
 ErrMax= 1.52D-02  0.00D+00 EMaxC= 1.00D-01 BMatC= 3.51D-02 BMatP= 2.63D-01
 IDIUse=3 WtCom= 8.48D-01 WtEn= 1.52D-01
 Coeff-Com:  0.203D+00 0.797D+00
 Coeff-En:   0.298D+00 0.702D+00
 Coeff:      0.217D+00 0.783D+00
 Gap=     0.324 Goal=   None    Shift=    0.000
 RMSDP=1.63D-02 MaxDP=1.07D+00 DE=-7.47D-02 OVMax= 1.33D-01

 Cycle   3  Pass 1  IDiag  1:
 RMSU=  6.31D-03    CP:  9.77D-01  3.14D-01
 E= -456.140724181971     Delta-E=       -0.142763853133 Rises=F Damp=F
 DIIS: error= 1.31D-02 at cycle   3 NSaved=   3.
 NSaved= 3 IEnMin= 3 EnMin= -456.140724181971     IErMin= 3 ErrMin= 1.31D-02
 ErrMax= 1.31D-02  0.00D+00 EMaxC= 1.00D-01 BMatC= 1.99D-02 BMatP= 3.51D-02
 IDIUse=3 WtCom= 8.69D-01 WtEn= 1.31D-01
 Coeff-Com:  0.630D-01 0.427D+00 0.510D+00
 Coeff-En:   0.000D+00 0.000D+00 0.100D+01
 Coeff:      0.548D-01 0.371D+00 0.574D+00
 Gap=     0.328 Goal=   None    Shift=    0.000
 RMSDP=2.53D-03 MaxDP=1.07D-01 DE=-1.43D-01 OVMax= 4.44D-02

 Cycle   4  Pass 1  IDiag  1:
 RMSU=  1.70D-03    CP:  1.00D+00  4.10D-01  9.72D-01
 E= -456.156907494313     Delta-E=       -0.016183312342 Rises=F Damp=F
 DIIS: error= 4.73D-03 at cycle   4 NSaved=   4.
 NSaved= 4 IEnMin= 4 EnMin= -456.156907494313     IErMin= 4 ErrMin= 4.73D-03
 ErrMax= 4.73D-03  0.00D+00 EMaxC= 1.00D-01 BMatC= 2.35D-03 BMatP= 1.99D-02
 IDIUse=3 WtCom= 9.53D-01 WtEn= 4.73D-02
 Coeff-Com:  0.138D-01 0.235D-01 0.253D+00 0.710D+00
 Coeff-En:   0.000D+00 0.000D+00 0.538D-01 0.946D+00
 Coeff:      0.132D-01 0.224D-01 0.243D+00 0.721D+00
 Gap=     0.328 Goal=   None    Shift=    0.000
 RMSDP=9.45D-04 MaxDP=4.82D-02 DE=-1.62D-02 OVMax= 1.18D-02

 Cycle   5  Pass 1  IDiag  1:
 RMSU=  2.74D-04    CP:  9.92D-01  3.64D-01  9.85D-01  8.27D-01
 E= -456.158705411928     Delta-E=       -0.001797917615 Rises=F Damp=F
 DIIS: error= 1.33D-03 at cycle   5 NSaved=   5.
 NSaved= 5 IEnMin= 5 EnMin= -456.158705411928     IErMin= 5 ErrMin= 1.33D-03
 ErrMax= 1.33D-03  0.00D+00 EMaxC= 1.00D-01 BMatC= 1.36D-04 BMatP= 2.35D-03
 IDIUse=3 WtCom= 9.87D-01 WtEn= 1.33D-02
 Coeff-Com:  0.412D-02-0.174D-01 0.921D-01 0.371D+00 0.550D+00
 Coeff-En:   0.000D+00 0.000D+00 0.000D+00 0.000D+00 0.100D+01
 Coeff:      0.407D-02-0.172D-01 0.909D-01 0.366D+00 0.556D+00
 Gap=     0.326 Goal=   None    Shift=    0.000
 RMSDP=2.47D-04 MaxDP=1.60D-02 DE=-1.80D-03 OVMax= 3.12D-03

 Cycle   6  Pass 1  IDiag  1:
 RMSU=  9.52D-05    CP:  9.88D-01  3.56D-01  9.98D-01  8.35D-01  7.97D-01
 E= -456.158827926982     Delta-E=       -0.000122515055 Rises=F Damp=F
 DIIS: error= 1.40D-04 at cycle   6 NSaved=   6.
 NSaved= 6 IEnMin= 6 EnMin= -456.158827926982     IErMin= 6 ErrMin= 1.40D-04
 ErrMax= 1.40D-04  0.00D+00 EMaxC= 1.00D-01 BMatC= 4.59D-06 BMatP= 1.36D-04
 IDIUse=3 WtCom= 9.99D-01 WtEn= 1.40D-03
 Coeff-Com:  0.151D-02-0.705D-02 0.119D-01 0.478D-01 0.150D+00 0.796D+00
 Coeff-En:   0.000D+00 0.000D+00 0.000D+00 0.000D+00 0.000D+00 0.100D+01
 Coeff:      0.151D-02-0.704D-02 0.119D-01 0.477D-01 0.149D+00 0.796D+00
 Gap=     0.325 Goal=   None    Shift=    0.000
 RMSDP=9.05D-05 MaxDP=5.05D-03 DE=-1.23D-04 OVMax= 3.97D-04

 Cycle   7  Pass 1  IDiag  1:
 RMSU=  3.01D-05    CP:  9.87D-01  3.52D-01  1.00D+00  8.35D-01  8.45D-01
                    CP:  1.08D+00
 E= -456.158831846760     Delta-E=       -0.000003919778 Rises=F Damp=F
 DIIS: error= 5.53D-05 at cycle   7 NSaved=   7.
 NSaved= 7 IEnMin= 7 EnMin= -456.158831846760     IErMin= 7 ErrMin= 5.53D-05
 ErrMax= 5.53D-05  0.00D+00 EMaxC= 1.00D-01 BMatC= 4.52D-07 BMatP= 4.59D-06
 IDIUse=1 WtCom= 1.00D+00 WtEn= 0.00D+00
 Coeff-Com:  0.331D-03-0.769D-03-0.656D-02-0.306D-01-0.948D-02 0.267D+00
 Coeff-Com:  0.780D+00
 Coeff:      0.331D-03-0.769D-03-0.656D-02-0.306D-01-0.948D-02 0.267D+00
 Coeff:      0.780D+00
 Gap=     0.325 Goal=   None    Shift=    0.000
 RMSDP=2.12D-05 MaxDP=4.75D-04 DE=-3.92D-06 OVMax= 2.34D-04

 Cycle   8  Pass 1  IDiag  1:
 RMSU=  1.21D-05    CP:  9.87D-01  3.51D-01  9.99D-01  8.34D-01  8.73D-01
                    CP:  1.08D+00  1.17D+00
 E= -456.158832310343     Delta-E=       -0.000000463582 Rises=F Damp=F
 DIIS: error= 1.58D-05 at cycle   8 NSaved=   8.
 NSaved= 8 IEnMin= 8 EnMin= -456.158832310343     IErMin= 8 ErrMin= 1.58D-05
 ErrMax= 1.58D-05  0.00D+00 EMaxC= 1.00D-01 BMatC= 4.05D-08 BMatP= 4.52D-07
 IDIUse=1 WtCom= 1.00D+00 WtEn= 0.00D+00
 Coeff-Com:  0.576D-04 0.944D-04-0.298D-02-0.144D-01-0.118D-01 0.403D-01
 Coeff-Com:  0.316D+00 0.673D+00
 Coeff:      0.576D-04 0.944D-04-0.298D-02-0.144D-01-0.118D-01 0.403D-01
 Coeff:      0.316D+00 0.673D+00
 Gap=     0.325 Goal=   None    Shift=    0.000
 RMSDP=7.22D-06 MaxDP=3.54D-04 DE=-4.64D-07 OVMax= 9.40D-05

 Cycle   9  Pass 1  IDiag  1:
 RMSU=  3.53D-06    CP:  9.87D-01  3.50D-01  9.99D-01  8.33D-01  8.76D-01
                    CP:  1.10D+00  1.25D+00  9.40D-01
 E= -456.158832333919     Delta-E=       -0.000000023576 Rises=F Damp=F
 DIIS: error= 1.48D-05 at cycle   9 NSaved=   9.
 NSaved= 9 IEnMin= 9 EnMin= -456.158832333919     IErMin= 9 ErrMin= 1.48D-05
 ErrMax= 1.48D-05  0.00D+00 EMaxC= 1.00D-01 BMatC= 1.93D-08 BMatP= 4.05D-08
 IDIUse=1 WtCom= 1.00D+00 WtEn= 0.00D+00
 Coeff-Com: -0.364D-04 0.229D-03-0.352D-03-0.221D-02-0.532D-02-0.405D-01
 Coeff-Com:  0.352D-01 0.464D+00 0.549D+00
 Coeff:     -0.364D-04 0.229D-03-0.352D-03-0.221D-02-0.532D-02-0.405D-01
 Coeff:      0.352D-01 0.464D+00 0.549D+00
 Gap=     0.325 Goal=   None    Shift=    0.000
 RMSDP=2.37D-06 MaxDP=4.81D-05 DE=-2.36D-08 OVMax= 4.84D-05

 Cycle  10  Pass 1  IDiag  1:
 RMSU=  1.54D-06    CP:  9.87D-01  3.50D-01  9.99D-01  8.33D-01  8.77D-01
                    CP:  1.10D+00  1.24D+00  9.98D-01  6.01D-01
 E= -456.158832349955     Delta-E=       -0.000000016037 Rises=F Damp=F
 DIIS: error= 1.30D-06 at cycle  10 NSaved=  10.
 NSaved=10 IEnMin=10 EnMin= -456.158832349955     IErMin=10 ErrMin= 1.30D-06
 ErrMax= 1.30D-06  0.00D+00 EMaxC= 1.00D-01 BMatC= 1.49D-10 BMatP= 1.93D-08
 IDIUse=1 WtCom= 1.00D+00 WtEn= 0.00D+00
 Coeff-Com: -0.816D-05 0.284D-04 0.109D-03 0.377D-03-0.103D-03-0.712D-02
 Coeff-Com: -0.953D-02 0.147D-01 0.920D-01 0.910D+00
 Coeff:     -0.816D-05 0.284D-04 0.109D-03 0.377D-03-0.103D-03-0.712D-02
 Coeff:     -0.953D-02 0.147D-01 0.920D-01 0.910D+00
 Gap=     0.325 Goal=   None    Shift=    0.000
 RMSDP=5.46D-07 MaxDP=1.19D-05 DE=-1.60D-08 OVMax= 6.86D-06

 Cycle  11  Pass 1  IDiag  1:
 RMSU=  2.44D-07    CP:  9.87D-01  3.50D-01  9.99D-01  8.33D-01  8.77D-01
                    CP:  1.10D+00  1.25D+00  9.97D-01  6.83D-01  9.68D-01
 E= -456.158832350138     Delta-E=       -0.000000000183 Rises=F Damp=F
 DIIS: error= 2.57D-07 at cycle  11 NSaved=  11.
 NSaved=11 IEnMin=11 EnMin= -456.158832350138     IErMin=11 ErrMin= 2.57D-07
 ErrMax= 2.57D-07  0.00D+00 EMaxC= 1.00D-01 BMatC= 1.29D-11 BMatP= 1.49D-10
 IDIUse=1 WtCom= 1.00D+00 WtEn= 0.00D+00
 Coeff-Com: -0.833D-06-0.469D-07 0.547D-04 0.210D-03 0.199D-03-0.605D-03
 Coeff-Com: -0.478D-02-0.139D-01 0.358D-02 0.304D+00 0.711D+00
 Coeff:     -0.833D-06-0.469D-07 0.547D-04 0.210D-03 0.199D-03-0.605D-03
 Coeff:     -0.478D-02-0.139D-01 0.358D-02 0.304D+00 0.711D+00
 Gap=     0.325 Goal=   None    Shift=    0.000
 RMSDP=1.20D-07 MaxDP=7.07D-06 DE=-1.83D-10 OVMax= 7.44D-07

 Cycle  12  Pass 1  IDiag  1:
 RMSU=  4.53D-08    CP:  9.87D-01  3.50D-01  9.99D-01  8.33D-01  8.77D-01
                    CP:  1.10D+00  1.25D+00  9.99D-01  6.79D-01  9.90D-01
                    CP:  1.04D+00
 E= -456.158832350146     Delta-E=       -0.000000000008 Rises=F Damp=F
 DIIS: error= 1.35D-07 at cycle  12 NSaved=  12.
 NSaved=12 IEnMin=12 EnMin= -456.158832350146     IErMin=12 ErrMin= 1.35D-07
 ErrMax= 1.35D-07  0.00D+00 EMaxC= 1.00D-01 BMatC= 2.40D-12 BMatP= 1.29D-11
 IDIUse=1 WtCom= 1.00D+00 WtEn= 0.00D+00
 Coeff-Com:  0.607D-06-0.292D-05 0.137D-04 0.489D-04 0.100D-03 0.489D-03
 Coeff-Com: -0.122D-02-0.745D-02-0.985D-02 0.350D-01 0.335D+00 0.648D+00
 Coeff:      0.607D-06-0.292D-05 0.137D-04 0.489D-04 0.100D-03 0.489D-03
 Coeff:     -0.122D-02-0.745D-02-0.985D-02 0.350D-01 0.335D+00 0.648D+00
 Gap=     0.325 Goal=   None    Shift=    0.000
 RMSDP=2.92D-08 MaxDP=9.13D-07 DE=-7.84D-12 OVMax= 3.83D-07

 Cycle  13  Pass 1  IDiag  1:
 RMSU=  1.83D-08    CP:  9.87D-01  3.50D-01  9.99D-01  8.33D-01  8.77D-01
                    CP:  1.10D+00  1.25D+00  1.00D+00  6.79D-01  9.99D-01
                    CP:  1.03D+00  1.02D+00
 E= -456.158832350147     Delta-E=       -0.000000000001 Rises=F Damp=F
 DIIS: error= 2.30D-08 at cycle  13 NSaved=  13.
 NSaved=13 IEnMin=13 EnMin= -456.158832350147     IErMin=13 ErrMin= 2.30D-08
 ErrMax= 2.30D-08  0.00D+00 EMaxC= 1.00D-01 BMatC= 9.47D-14 BMatP= 2.40D-12
 IDIUse=1 WtCom= 1.00D+00 WtEn= 0.00D+00
 Coeff-Com:  0.292D-06-0.110D-05 0.266D-05 0.740D-05 0.282D-04 0.205D-03
 Coeff-Com: -0.219D-03-0.212D-02-0.357D-02-0.278D-02 0.810D-01 0.234D+00
 Coeff-Com:  0.694D+00
 Coeff:      0.292D-06-0.110D-05 0.266D-05 0.740D-05 0.282D-04 0.205D-03
 Coeff:     -0.219D-03-0.212D-02-0.357D-02-0.278D-02 0.810D-01 0.234D+00
 Coeff:      0.694D+00
 Gap=     0.325 Goal=   None    Shift=    0.000
 RMSDP=6.02D-09 MaxDP=1.11D-07 DE=-9.09D-13 OVMax= 7.10D-08

 SCF Done:  E(RBMK) =  -456.158832350     A.U. after   13 cycles
            NFock= 13  Conv=0.60D-08     -V/T= 2.0061
 KE= 4.533749596131D+02 PE=-1.951089876226D+03 EE= 5.984985097015D+02
 Leave Link  502 at Tue Sep 16 16:00:16 2025, MaxMem=    33554432 cpu:        93.7
 (Enter /nexus/posix0/bmm/home/sucerqdl/sw/g09/l601.exe)
 Copying SCF densities to generalized density rwf, IOpCl= 0 IROHF=0.

 **********************************************************************

            Population analysis using the SCF density.

 **********************************************************************

 Orbital symmetries:
       Occupied  (A) (A) (A) (A) (A) (A) (A) (A) (A) (A) (A) (A)
                 (A) (A) (A) (A) (A) (A) (A) (A) (A) (A) (A) (A)
                 (A) (A) (A) (A) (A) (A) (A) (A) (A) (A) (A)
       Virtual   (A) (A) (A) (A) (A) (A) (A) (A) (A) (A) (A) (A)
                 (A) (A) (A) (A) (A) (A) (A) (A) (A) (A) (A) (A)
                 (A) (A) (A) (A) (A) (A) (A) (A) (A) (A) (A) (A)
                 (A) (A) (A) (A) (A) (A) (A) (A) (A) (A) (A) (A)
                 (A) (A) (A) (A) (A) (A) (A) (A) (A) (A) (A) (A)
                 (A) (A) (A) (A) (A) (A) (A) (A) (A) (A) (A) (A)
                 (A) (A) (A) (A) (A) (A) (A) (A) (A) (A) (A) (A)
                 (A) (A) (A) (A) (A) (A) (A) (A) (A) (A) (A) (A)
                 (A) (A) (A) (A) (A) (A)
 The electronic state is 1-A.
 Alpha  occ. eigenvalues --  -19.54153 -19.51681 -14.72758 -14.71121 -10.62177
 Alpha  occ. eigenvalues --  -10.60349 -10.53811 -10.52567 -10.48359  -1.15825
 Alpha  occ. eigenvalues --   -1.13569  -1.02525  -1.00917  -0.84362  -0.80722
 Alpha  occ. eigenvalues --   -0.76267  -0.66713  -0.65491  -0.59937  -0.54837
 Alpha  occ. eigenvalues --   -0.53670  -0.53364  -0.51141  -0.51071  -0.48592
 Alpha  occ. eigenvalues --   -0.47047  -0.45668  -0.44857  -0.43947  -0.43343
 Alpha  occ. eigenvalues --   -0.39860  -0.32593  -0.31631  -0.29894  -0.29627
 Alpha virt. eigenvalues --    0.02872   0.02970   0.04696   0.04775   0.05055
 Alpha virt. eigenvalues --    0.06698   0.06810   0.08024   0.09085   0.09175
 Alpha virt. eigenvalues --    0.09834   0.11001   0.11519   0.12221   0.13380
 Alpha virt. eigenvalues --    0.13659   0.15163   0.15755   0.15907   0.17618
 Alpha virt. eigenvalues --    0.18973   0.19805   0.20411   0.21006   0.21862
 Alpha virt. eigenvalues --    0.22263   0.22795   0.23821   0.24018   0.24410
 Alpha virt. eigenvalues --    0.26410   0.27192   0.27668   0.28190   0.28655
 Alpha virt. eigenvalues --    0.29488   0.29855   0.30414   0.30924   0.32293
 Alpha virt. eigenvalues --    0.33327   0.33810   0.35345   0.36273   0.36846
 Alpha virt. eigenvalues --    0.37796   0.39234   0.40800   0.41056   0.44113
 Alpha virt. eigenvalues --    0.45030   0.46467   0.47975   0.50038   0.54418
 Alpha virt. eigenvalues --    0.57014   0.70224   0.70520   0.71494   0.72056
 Alpha virt. eigenvalues --    0.72930   0.74105   0.78352   0.78540   0.79968
 Alpha virt. eigenvalues --    0.81822   0.86945   0.88843   0.91465   0.93818
 Alpha virt. eigenvalues --    0.97426   0.98018   1.01354   1.06391   1.09970
 Alpha virt. eigenvalues --    1.10408   1.11892   1.12283   1.14817   1.16681
 Alpha virt. eigenvalues --    1.18293   1.20170   1.21952   1.24835   1.26841
 Alpha virt. eigenvalues --    1.34304   1.35051   1.35072   1.37693   1.37773
 Alpha virt. eigenvalues --    1.45269   1.45930   1.49355   1.52906   1.53674
 Alpha virt. eigenvalues --    1.56293   1.61147   1.68143   1.75208   1.86720
 Alpha virt. eigenvalues --    2.11732   2.14957
          Condensed to atoms (all electrons):
               1          2          3          4          5          6
     1  C    6.575468   0.380241   0.425065   0.425069  -0.463593  -0.080848
     2  H    0.380241   0.528307  -0.026349  -0.026349  -0.061484   0.006054
     3  H    0.425065  -0.026349   0.466551  -0.021372  -0.069603  -0.004753
     4  H    0.425069  -0.026349  -0.021372   0.466555  -0.069602  -0.004752
     5  C   -0.463593  -0.061484  -0.069603  -0.069602   6.055652   0.418214
     6  O   -0.080848   0.006054  -0.004753  -0.004752   0.418214   8.507353
     7  N   -0.350530   0.008236   0.003344   0.003341  -0.211477  -0.250374
     8  H    0.010114   0.001730   0.000033   0.000033   0.021720   0.004163
     9  C   -0.344295  -0.001070  -0.005310  -0.005315  -0.948530  -0.062182
    10  H   -0.001260  -0.000004   0.000033  -0.000012   0.003394   0.001545
    11  H   -0.001251  -0.000004  -0.000012   0.000033   0.003383   0.001549
    12  C    0.204106   0.000947  -0.001384  -0.001384   0.596800   0.037717
    13  O    0.001811  -0.000063   0.000011   0.000011   0.014656  -0.000769
    14  N    0.002446   0.000058  -0.000007  -0.000007   0.021389  -0.002864
    15  H    0.000073   0.000000   0.000000   0.000000   0.000286   0.000070
    16  C    0.001785   0.000033  -0.000001  -0.000001   0.008138  -0.000452
    17  H   -0.000005   0.000000   0.000000   0.000000  -0.000083   0.000000
    18  H    0.000017   0.000000   0.000000   0.000000   0.000107   0.000000
    19  H    0.000017   0.000000   0.000000   0.000000   0.000107   0.000000
               7          8          9         10         11         12
     1  C   -0.350530   0.010114  -0.344295  -0.001260  -0.001251   0.204106
     2  H    0.008236   0.001730  -0.001070  -0.000004  -0.000004   0.000947
     3  H    0.003344   0.000033  -0.005310   0.000033  -0.000012  -0.001384
     4  H    0.003341   0.000033  -0.005315  -0.000012   0.000033  -0.001384
     5  C   -0.211477   0.021720  -0.948530   0.003394   0.003383   0.596800
     6  O   -0.250374   0.004163  -0.062182   0.001545   0.001549   0.037717
     7  N    8.055647   0.261672   0.354257  -0.050204  -0.050197  -0.251970
     8  H    0.261672   0.293717  -0.114475   0.002254   0.002254   0.060428
     9  C    0.354257  -0.114475  12.821643   0.339379   0.339412  -4.844275
    10  H   -0.050204   0.002254   0.339379   0.484041  -0.036098  -0.006608
    11  H   -0.050197   0.002254   0.339412  -0.036098   0.484039  -0.006641
    12  C   -0.251970   0.060428  -4.844275  -0.006608  -0.006641   8.901393
    13  O    0.012243   0.014934   0.065359   0.000621   0.000617   0.240175
    14  N    0.008399   0.006156  -0.854986   0.013497   0.013495   0.401890
    15  H    0.001105  -0.000020  -0.007730  -0.000082  -0.000084   0.014647
    16  C   -0.002249   0.002055  -0.148320   0.004054   0.004046  -0.091118
    17  H    0.000025   0.000000  -0.004511   0.000001   0.000001   0.019193
    18  H   -0.000127   0.000000   0.000108   0.000024  -0.000013  -0.019299
    19  H   -0.000126   0.000000   0.000094  -0.000013   0.000024  -0.019263
              13         14         15         16         17         18
     1  C    0.001811   0.002446   0.000073   0.001785  -0.000005   0.000017
     2  H   -0.000063   0.000058   0.000000   0.000033   0.000000   0.000000
     3  H    0.000011  -0.000007   0.000000  -0.000001   0.000000   0.000000
     4  H    0.000011  -0.000007   0.000000  -0.000001   0.000000   0.000000
     5  C    0.014656   0.021389   0.000286   0.008138  -0.000083   0.000107
     6  O   -0.000769  -0.002864   0.000070  -0.000452   0.000000   0.000000
     7  N    0.012243   0.008399   0.001105  -0.002249   0.000025  -0.000127
     8  H    0.014934   0.006156  -0.000020   0.002055   0.000000   0.000000
     9  C    0.065359  -0.854986  -0.007730  -0.148320  -0.004511   0.000108
    10  H    0.000621   0.013497  -0.000082   0.004054   0.000001   0.000024
    11  H    0.000617   0.013495  -0.000084   0.004046   0.000001  -0.000013
    12  C    0.240175   0.401890   0.014647  -0.091118   0.019193  -0.019299
    13  O    8.500118  -0.245511   0.005159  -0.018635   0.001394   0.001028
    14  N   -0.245511   7.950535   0.281394   0.157890  -0.050715  -0.049128
    15  H    0.005159   0.281394   0.333072  -0.023168  -0.004470   0.002155
    16  C   -0.018635   0.157890  -0.023168   5.285349   0.382751   0.412009
    17  H    0.001394  -0.050715  -0.004470   0.382751   0.522058  -0.026697
    18  H    0.001028  -0.049128   0.002155   0.412009  -0.026697   0.486599
    19  H    0.001025  -0.049121   0.002153   0.411970  -0.026714  -0.031683
              19
     1  C    0.000017
     2  H    0.000000
     3  H    0.000000
     4  H    0.000000
     5  C    0.000107
     6  O    0.000000
     7  N   -0.000126
     8  H    0.000000
     9  C    0.000094
    10  H   -0.000013
    11  H    0.000024
    12  C   -0.019263
    13  O    0.001025
    14  N   -0.049121
    15  H    0.002153
    16  C    0.411970
    17  H   -0.026714
    18  H   -0.031683
    19  H    0.486667
 Mulliken charges:
               1
     1  C   -0.784429
     2  H    0.189717
     3  H    0.233753
     4  H    0.233753
     5  C    0.680527
     6  O   -0.569671
     7  N   -0.541013
     8  H    0.433232
     9  C   -0.579251
    10  H    0.245439
    11  H    0.245448
    12  C    0.764646
    13  O   -0.594184
    14  N   -0.604810
    15  H    0.395442
    16  C   -0.386136
    17  H    0.187772
    18  H    0.224900
    19  H    0.224865
 Sum of Mulliken charges =   0.00000
 Mulliken charges with hydrogens summed into heavy atoms:
               1
     1  C   -0.127206
     5  C    0.680527
     6  O   -0.569671
     7  N   -0.107781
     9  C   -0.088364
    12  C    0.764646
    13  O   -0.594184
    14  N   -0.209368
    16  C    0.251402
 Electronic spatial extent (au):  <R**2>=           1894.2357
 Charge=              0.0000 electrons
 Dipole moment (field-independent basis, Debye):
    X=              3.0750    Y=             -0.3216    Z=             -0.0003  Tot=              3.0917
 Quadrupole moment (field-independent basis, Debye-Ang):
   XX=            -46.0676   YY=            -60.7685   ZZ=            -54.9331
   XY=            -18.2071   XZ=             -0.0015   YZ=             -0.0004
 Traceless Quadrupole moment (field-independent basis, Debye-Ang):
   XX=              7.8554   YY=             -6.8454   ZZ=             -1.0100
   XY=            -18.2071   XZ=             -0.0015   YZ=             -0.0004
 Octapole moment (field-independent basis, Debye-Ang**2):
  XXX=             47.5285  YYY=             -3.2727  ZZZ=              0.0022  XYY=             13.5844
  XXY=             16.4746  XXZ=             -0.0062  XZZ=             -1.7739  YZZ=             -0.3898
  YYZ=             -0.0030  XYZ=              0.0011
 Hexadecapole moment (field-independent basis, Debye-Ang**3):
 XXXX=          -1867.9552 YYYY=           -307.1426 ZZZZ=            -73.9735 XXXY=           -104.7344
 XXXZ=             -0.0181 YYYX=            -54.0466 YYYZ=              0.0003 ZZZX=              0.0061
 ZZZY=             -0.0008 XXYY=           -436.7115 XXZZ=           -357.8825 YYZZ=            -62.8738
 XXYZ=              0.0069 YYXZ=             -0.0103 ZZXY=              7.1673
 N-N= 4.430575745612D+02 E-N=-1.951089876411D+03  KE= 4.533749596131D+02
 No NMR shielding tensors so no spin-rotation constants.
 Leave Link  601 at Tue Sep 16 16:00:16 2025, MaxMem=    33554432 cpu:         1.7
 (Enter /nexus/posix0/bmm/home/sucerqdl/sw/g09/l701.exe)
 Compute integral first derivatives.
 ... and contract with generalized density number  0.
 PrsmSu:  requested number of processors reduced to:   9 ShMem   1 Linda.
 Leave Link  701 at Tue Sep 16 16:00:16 2025, MaxMem=    33554432 cpu:         1.4
 (Enter /nexus/posix0/bmm/home/sucerqdl/sw/g09/l702.exe)
 L702 exits ... SP integral derivatives will be done elsewhere.
 Leave Link  702 at Tue Sep 16 16:00:17 2025, MaxMem=    33554432 cpu:         0.3
 (Enter /nexus/posix0/bmm/home/sucerqdl/sw/g09/l703.exe)
 Compute integral first derivatives, UseDBF=F ICtDFT=           0.
 Integral derivatives from FoFJK, PRISM(SPDF).
 Calling FoFJK, ICntrl=      2127 FMM=F ISym2X=0 I1Cent= 0 IOpClX= 0 NMat=1 NMatS=1 NMatT=0.
 FoFJK:  IHMeth= 1 ICntrl=    2127 DoSepK=F KAlg= 0 I1Cent=   0 FoldK=F
 IRaf=         0 NMat=   1 IRICut=       1 DoRegI=T DoRafI=F ISym2E= 0.
 FoFCou: FMM=F IPFlag=           0 FMFlag=      100000 FMFlg1=         800
         NFxFlg=           0 DoJE=F BraDBF=F KetDBF=F FulRan=T
         wScrn=  0.000000 ICntrl=    2127 IOpCl=  0 I1Cent=           0 NGrid=           0
         NMat0=    1 NMatS0=      1 NMatT0=    0 NMatD0=    1 NMtDS0=    0 NMtDT0=    0
 Symmetry not used in FoFCou.
 Leave Link  703 at Tue Sep 16 16:00:17 2025, MaxMem=    33554432 cpu:         7.2
 (Enter /nexus/posix0/bmm/home/sucerqdl/sw/g09/l716.exe)
 Dipole        = 1.20978469D+00-1.26537654D-01-1.30700600D-04
 ***** Axes restored to original set *****
 -------------------------------------------------------------------
 Center     Atomic                   Forces (Hartrees/Bohr)
 Number     Number              X              Y              Z
 -------------------------------------------------------------------
      1        6          -0.005652267   -0.009486788    0.001862528
      2        1           0.000001300    0.000002300   -0.000001906
      3        1          -0.000004921   -0.000009352    0.000005195
      4        1          -0.000005668   -0.000008786    0.000005167
      5        6           0.000011299    0.000020444   -0.000006454
      6        8           0.000005538    0.000009900    0.000006083
      7        7          -0.000032939   -0.000058172    0.000036561
      8        1           0.000030096    0.000051390   -0.000046504
      9        6          -0.000003205   -0.000005389    0.000012768
     10        1          -0.000001404    0.000001565    0.000000741
     11        1           0.000002676   -0.000000486   -0.000000175
     12        6           0.000011093    0.000017297    0.000022580
     13        8          -0.000009126   -0.000014277   -0.000003313
     14        7          -0.000010069   -0.000021710   -0.000005737
     15        1          -0.000002891    0.000000705   -0.000002813
     16        6           0.005659869    0.009499162   -0.001874919
     17        1           0.000001867   -0.000002443   -0.000003980
     18        1          -0.000006212    0.000000977   -0.000004376
     19        1           0.000004965    0.000003664   -0.000001446
 -------------------------------------------------------------------
 Cartesian Forces:  Max     0.009499162 RMS     0.002099350
 -----------------------------------------------------------------------------------------------
                       Internal Coordinate Forces (Hartree/Bohr or radian)
  Cent   Atom   N1       Length/X         N2         Alpha/Y        N3         Beta/Z          J
 -----------------------------------------------------------------------------------------------
      1  C 
      2  H        1  -0.000002(     1)
      3  H        1  -0.000006(     2)      2  -0.000007(    19)
      4  H        1  -0.000006(     3)      2  -0.000007(    20)      3  -0.000018(    36)     0
      5  C        1  -0.009456(     4)      2   0.000049(    21)      3   0.000002(    37)     0
      6  O        5  -0.000007(     5)      1  -0.000025(    22)      2   0.000000(    38)     0
      7  N        5  -0.009860(     6)      1  -0.017485(    23)      6   0.000000(    39)     0
      8  H        7  -0.000042(     7)      5  -0.000121(    24)      1  -0.000001(    40)     0
      9  C        7  -0.009492(     8)      5   0.003710(    25)      8  -0.000001(    41)     0
     10  H        9  -0.000002(     9)      7   0.000000(    26)      5   0.000001(    42)     0
     11  H        9  -0.000002(    10)      7   0.000000(    27)     10   0.000003(    43)     0
     12  C        9  -0.008999(    11)      7  -0.020056(    28)     10  -0.000001(    44)     0
     13  O       12  -0.000007(    12)      9   0.000037(    29)      7  -0.000004(    45)     0
     14  N       12  -0.009840(    13)      9   0.000691(    30)     13  -0.000005(    46)     0
     15  H       14   0.000003(    14)     12   0.000001(    31)      9  -0.000003(    47)     0
     16  C       14  -0.009949(    15)     12  -0.014467(    32)     15   0.000002(    48)     0
     17  H       16   0.000003(    16)     14  -0.000005(    33)     12  -0.000003(    49)     0
     18  H       16  -0.000007(    17)     14   0.000004(    34)     17  -0.000003(    50)     0
     19  H       16  -0.000003(    18)     14  -0.000010(    35)     17  -0.000006(    51)     0
 -----------------------------------------------------------------------------------------------
 Internal  Forces:  Max     0.020055631 RMS     0.005396165
 Leave Link  716 at Tue Sep 16 16:00:17 2025, MaxMem=    33554432 cpu:         0.5
 (Enter /nexus/posix0/bmm/home/sucerqdl/sw/g09/l103.exe)

 GradGradGradGradGradGradGradGradGradGradGradGradGradGradGradGradGradGrad
 Berny optimization.
 Search for a local minimum.
 Step number   1 out of a maximum of    2
 All quantities printed in internal units (Hartrees-Bohrs-Radians)
 Second derivative matrix not updated -- first step.
 ITU=  0
     Eigenvalues ---    0.01190   0.01547   0.02654   0.02938   0.04087
     Eigenvalues ---    0.04377   0.06952   0.07190   0.07586   0.09558
     Eigenvalues ---    0.10916   0.13516   0.13702   0.15038   0.16222
     Eigenvalues ---    0.16661   0.19879   0.19879   0.23458   0.23492
     Eigenvalues ---    0.25000   0.25000   0.26128   0.28420   0.28973
     Eigenvalues ---    0.32649   0.33583   0.33584   0.34082   0.34082
     Eigenvalues ---    0.34113   0.34113   0.34129   0.34355   0.34451
     Eigenvalues ---    0.34971   0.36999   0.37473   0.38277   0.39863
     Eigenvalues ---    0.41242   0.45622   0.46021   0.51181   0.52019
     Eigenvalues ---    0.53121   0.53121   0.75000   0.75000   0.83860
     Eigenvalues ---    0.85437
 Angle between quadratic step and forces=  27.11 degrees.
 Linear search not attempted -- first point.
 Variable       Old X    -DE/DX   Delta X   Delta X   Delta X     New X
                                 (Linear)    (Quad)   (Total)
    R2        2.07112   0.00000   0.00000  -0.00001  -0.00001   2.07112
    R3        2.07139  -0.00001   0.00000  -0.00002  -0.00002   2.07138
    R4        2.07140  -0.00001   0.00000  -0.00002  -0.00002   2.07138
    R5        2.90060  -0.00946   0.00000  -0.03264  -0.03264   2.86796
    R6        2.35899  -0.00001   0.00000  -0.00001  -0.00001   2.35898
    R7        2.58692  -0.00986   0.00000  -0.01927  -0.01927   2.56765
    R8        1.91260  -0.00004   0.00000  -0.00009  -0.00009   1.91251
    R9        2.75848  -0.00949   0.00000  -0.02566  -0.02566   2.73282
   R10        2.08038   0.00000   0.00000  -0.00001  -0.00001   2.08038
   R11        2.08039   0.00000   0.00000  -0.00001  -0.00001   2.08038
   R12        2.91230  -0.00900   0.00000  -0.03167  -0.03167   2.88064
   R13        2.35110  -0.00001   0.00000  -0.00001  -0.00001   2.35109
   R14        2.57881  -0.00984   0.00000  -0.01892  -0.01892   2.55989
   R15        1.90808   0.00000   0.00000   0.00001   0.00001   1.90809
   R16        2.79023  -0.00995   0.00000  -0.02845  -0.02845   2.76178
   R17        2.06575   0.00000   0.00000   0.00001   0.00001   2.06576
   R18        2.07192  -0.00001   0.00000  -0.00002  -0.00002   2.07190
   R19        2.07192   0.00000   0.00000  -0.00001  -0.00001   2.07192
    A3        1.91139  -0.00001   0.00000  -0.00006  -0.00006   1.91133
    A4        1.91138  -0.00001   0.00000  -0.00007  -0.00007   1.91131
    A5        1.97141   0.00005   0.00000   0.00023   0.00023   1.97163
    A6        2.10093  -0.00002   0.00000   0.02325   0.02325   2.12418
    A7        2.08145  -0.01749   0.00000  -0.04659  -0.04659   2.03485
    A8        2.15170  -0.00012   0.00000  -0.00609  -0.00609   2.14561
    A9        2.09111   0.00371   0.00000   0.01142   0.01142   2.10253
   A10        1.91301   0.00000   0.00000   0.01490   0.01490   1.92792
   A11        1.91303   0.00000   0.00000   0.01489   0.01489   1.92792
   A12        1.94524  -0.02006   0.00000  -0.06916  -0.06916   1.87608
   A13        2.12564   0.00004   0.00000  -0.00082  -0.00082   2.12482
   A14        2.00869   0.00069   0.00000   0.00179   0.00179   2.01049
   A15        2.06642   0.00000   0.00000   0.02192   0.02192   2.08834
   A16        2.16483  -0.01447   0.00000  -0.04384  -0.04384   2.12099
   A17        1.89012  -0.00001   0.00000   0.00002   0.00002   1.89014
   A18        1.92539   0.00000   0.00000   0.00002   0.00002   1.92541
   A19        1.92551  -0.00001   0.00000  -0.00004  -0.00004   1.92547
    D4       -2.06705  -0.00002   0.00000   0.00001   0.00001  -2.06704
    D5        2.10807   0.00000   0.00000   0.00002   0.00002   2.10809
    D6       -3.14145   0.00000   0.00000  -0.00002  -0.00002  -3.14147
    D7       -3.14157   0.00000   0.00000   0.00001   0.00001  -3.14156
    D8       -0.00005   0.00000   0.00000   0.00000   0.00000  -0.00004
    D9       -3.14158   0.00000   0.00000  -0.00002  -0.00002  -3.14160
   D10        1.01790   0.00000   0.00000   0.01582   0.01582   1.03373
   D11       -2.03620   0.00000   0.00000  -0.03159  -0.03159  -2.06779
   D12        2.12351   0.00000   0.00000  -0.01579  -0.01579   2.10772
   D13        0.00022   0.00000   0.00000  -0.00030  -0.00030  -0.00008
   D14        3.14158  -0.00001   0.00000  -0.00002  -0.00002   3.14156
   D15        0.00012   0.00000   0.00000  -0.00005  -0.00005   0.00006
   D16        3.14147   0.00000   0.00000   0.00006   0.00006   3.14153
   D17       -3.14080   0.00000   0.00000  -0.00010  -0.00010  -3.14090
   D18        2.09588   0.00000   0.00000   0.00002   0.00002   2.09590
   D19       -2.09590  -0.00001   0.00000  -0.00004  -0.00004  -2.09594
         Item               Value     Threshold  Converged?
 Maximum Force            0.020056     0.000450     NO 
 RMS     Force            0.005396     0.000300     NO 
 Maximum Displacement     0.069157     0.001800     NO 
 RMS     Displacement     0.017863     0.001200     NO 
 Predicted change in Energy=-2.187917D-03
 GradGradGradGradGradGradGradGradGradGradGradGradGradGradGradGradGradGrad

 Leave Link  103 at Tue Sep 16 16:00:17 2025, MaxMem=    33554432 cpu:         0.5
 (Enter /nexus/posix0/bmm/home/sucerqdl/sw/g09/l9999.exe)
 1\1\GINC-SLURM-ORBIT-CPU1\Force\RBMK\6-31+G\C5H10N2O2\SUCERQDL\16-Sep-
 2025\1\\#P bmk/6-31+g force\\Gaussian input prepared by ASE\\0,1\C\H,1
 ,R2\H,1,R3,2,A3\H,1,R4,2,A4,3,D4,0\C,1,R5,2,A5,3,D5,0\O,5,R6,1,A6,2,D6
 ,0\N,5,R7,1,A7,6,D7,0\H,7,R8,5,A8,1,D8,0\C,7,R9,5,A9,8,D9,0\H,9,R10,7,
 A10,5,D10,0\H,9,R11,7,A11,10,D11,0\C,9,R12,7,A12,10,D12,0\O,12,R13,9,A
 13,7,D13,0\N,12,R14,9,A14,13,D14,0\H,14,R15,12,A15,9,D15,0\C,14,R16,12
 ,A16,15,D16,0\H,16,R17,14,A17,12,D17,0\H,16,R18,14,A18,17,D18,0\H,16,R
 19,14,A19,17,D19,0\\R2=1.09599176\R3=1.09613449\R4=1.0961363\R5=1.5349
 307\R6=1.24832299\R7=1.36893651\R8=1.01210524\R9=1.45972502\R10=1.1008
 9169\R11=1.10089532\R12=1.5411244\R13=1.24414868\R14=1.36464701\R15=1.
 00971183\R16=1.47652456\R17=1.09314941\R18=1.09641516\R19=1.09641469\A
 3=109.51454231\A4=109.51402017\A5=112.95335595\A6=120.3746672\A7=119.2
 5805341\A8=123.28319116\A9=119.81173733\A10=109.60756925\A11=109.60842
 665\A12=111.4540773\A13=121.79017407\A14=115.08969286\A15=118.39719593
 \A16=124.03578767\A17=108.29583468\A18=110.31657689\A19=110.32352903\D
 4=-118.43316902\D5=120.78360055\D6=-179.99203048\D7=-179.99880233\D8=-
 0.00260776\D9=-179.99921535\D10=58.32160024\D11=-116.66569594\D12=121.
 66827296\D13=0.01233873\D14=179.99931833\D15=0.00659758\D16=179.992917
 76\D17=-179.95451293\D18=120.08536281\D19=-120.08630935\\Version=ES64L
 -G09RevD.01\State=1-A\HF=-456.1588324\RMSD=6.023e-09\RMSF=2.099e-03\Di
 pole=-0.6119493,-1.027491,0.2221961\Quadrupole=2.6734337,8.9058212,-11
 .5792549,5.7504733,4.2891692,7.196594\PG=C01 [X(C5H10N2O2)]\\@


 THERE'S NOTHING WRONG WITH FOLLOWING A TRAIN OF THOUGHT...
 AS LONG AS IT ULTIMATELY PULLS INTO THE STATION.
 Job cpu time:       0 days  0 hours  1 minutes 59.4 seconds.
 File lengths (MBytes):  RWF=    132 Int=      0 D2E=      0 Chk=      3 Scr=      2
 Normal termination of Gaussian 09 at Tue Sep 16 16:00:17 2025.
