 Entering Gaussian System, Link 0=g09
 Input=forces.com
 Output=forces.log
 Initial command:
 /nexus/posix0/bmm/home/sucerqdl/sw/g09/l1.exe "/nexus/posix0/bmm/home/sucerqdl/sw/g09/g09_scratch/Gau-3008465.inp" -scrdir="/nexus/posix0/bmm/home/sucerqdl/sw/g09/g09_scratch/"
 Entering Link 1 = /nexus/posix0/bmm/home/sucerqdl/sw/g09/l1.exe PID=   3008467.
  
 Copyright (c) 1988,1990,1992,1993,1995,1998,2003,2009,2013,
            Gaussian, Inc.  All Rights Reserved.
  
 This is part of the Gaussian(R) 09 program.  It is based on
 the Gaussian(R) 03 system (copyright 2003, Gaussian, Inc.),
 the Gaussian(R) 98 system (copyright 1998, Gaussian, Inc.),
 the Gaussian(R) 94 system (copyright 1995, Gaussian, Inc.),
 the Gaussian 92(TM) system (copyright 1992, Gaussian, Inc.),
 the Gaussian 90(TM) system (copyright 1990, Gaussian, Inc.),
 the Gaussian 88(TM) system (copyright 1988, Gaussian, Inc.),
 the Gaussian 86(TM) system (copyright 1986, Carnegie Mellon
 University), and the Gaussian 82(TM) system (copyright 1983,
 Carnegie Mellon University). Gaussian is a federally registered
 trademark of Gaussian, Inc.
  
 This software contains proprietary and confidential information,
 including trade secrets, belonging to Gaussian, Inc.
  
 This software is provided under written license and may be
 used, copied, transmitted, or stored only in accord with that
 written license.
  
 The following legend is applicable only to US Government
 contracts under FAR:
  
                    RESTRICTED RIGHTS LEGEND
  
 Use, reproduction and disclosure by the US Government is
 subject to restrictions as set forth in subparagraphs (a)
 and (c) of the Commercial Computer Software - Restricted
 Rights clause in FAR 52.227-19.
  
 Gaussian, Inc.
 340 Quinnipiac St., Bldg. 40, Wallingford CT 06492
  
  
 ---------------------------------------------------------------
 Warning -- This program may not be used in any manner that
 competes with the business of Gaussian, Inc. or will provide
 assistance to any competitor of Gaussian, Inc.  The licensee
 of this program is prohibited from giving any competitor of
 Gaussian, Inc. access to this program.  By using this program,
 the user acknowledges that Gaussian, Inc. is engaged in the
 business of creating and licensing software in the field of
 computational chemistry and represents and warrants to the
 licensee that it is not a competitor of Gaussian, Inc. and that
 it will not use this program in any manner prohibited above.
 ---------------------------------------------------------------
  

 Cite this work as:
 Gaussian 09, Revision D.01,
 M. J. Frisch, G. W. Trucks, H. B. Schlegel, G. E. Scuseria, 
 M. A. Robb, J. R. Cheeseman, G. Scalmani, V. Barone, B. Mennucci, 
 G. A. Petersson, H. Nakatsuji, M. Caricato, X. Li, H. P. Hratchian, 
 A. F. Izmaylov, J. Bloino, G. Zheng, J. L. Sonnenberg, M. Hada, 
 M. Ehara, K. Toyota, R. Fukuda, J. Hasegawa, M. Ishida, T. Nakajima, 
 Y. Honda, O. Kitao, H. Nakai, T. Vreven, J. A. Montgomery, Jr., 
 J. E. Peralta, F. Ogliaro, M. Bearpark, J. J. Heyd, E. Brothers, 
 K. N. Kudin, V. N. Staroverov, T. Keith, R. Kobayashi, J. Normand, 
 K. Raghavachari, A. Rendell, J. C. Burant, S. S. Iyengar, J. Tomasi, 
 M. Cossi, N. Rega, J. M. Millam, M. Klene, J. E. Knox, J. B. Cross, 
 V. Bakken, C. Adamo, J. Jaramillo, R. Gomperts, R. E. Stratmann, 
 O. Yazyev, A. J. Austin, R. Cammi, C. Pomelli, J. W. Ochterski, 
 R. L. Martin, K. Morokuma, V. G. Zakrzewski, G. A. Voth, 
 P. Salvador, J. J. Dannenberg, S. Dapprich, A. D. Daniels, 
 O. Farkas, J. B. Foresman, J. V. Ortiz, J. Cioslowski, 
 and D. J. Fox, Gaussian, Inc., Wallingford CT, 2013.
 
 ******************************************
 Gaussian 09:  ES64L-G09RevD.01 24-Apr-2013
                 8-Sep-2025 
 ******************************************
 %chk=forces
 %NProcShared=16
 Will use up to   16 processors via shared memory.
 -------------------
 #P bmk/6-31+g force
 -------------------
 1/10=7,30=1,38=1/1,3;
 2/12=2,17=6,18=5,40=1/2;
 3/5=1,6=6,7=10,11=2,16=1,25=1,30=1,71=1,74=-34/1,2,3;
 4//1;
 5/5=2,38=5/2;
 6/7=2,8=2,9=2,10=2,28=1/1;
 7/29=1/1,2,3,16;
 1/10=7,30=1/3;
 99//99;
 Leave Link    1 at Mon Sep  8 11:54:48 2025, MaxMem=           0 cpu:         1.0
 (Enter /nexus/posix0/bmm/home/sucerqdl/sw/g09/l101.exe)
 ------------------------------
 Gaussian input prepared by ASE
 ------------------------------
 Symbolic Z-matrix:
 Charge =  0 Multiplicity = 1
 C
 H                    1    R2
 H                    1    R3       2    A3
 H                    1    R4       2    A4       3    D4       0
 C                    1    R5       2    A5       3    D5       0
 O                    5    R6       1    A6       2    D6       0
 N                    5    R7       1    A7       6    D7       0
 H                    7    R8       5    A8       1    D8       0
 C                    7    R9       5    A9       8    D9       0
 H                    9    R10      7    A10      5    D10      0
 H                    9    R11      7    A11      10   D11      0
 C                    9    R12      7    A12      10   D12      0
 O                    12   R13      9    A13      7    D13      0
 N                    12   R14      9    A14      13   D14      0
 H                    14   R15      12   A15      9    D15      0
 C                    14   R16      12   A16      15   D16      0
 H                    16   R17      14   A17      12   D17      0
 H                    16   R18      14   A18      17   D18      0
 H                    16   R19      14   A19      17   D19      0
       Variables:
  R2                    1.09445                  
  R3                    1.09292                  
  R4                    1.09292                  
  R5                    1.67455                  
  R6                    1.2444                   
  R7                    1.42236                  
  R8                    1.01244                  
  R9                    1.53669                  
  R10                   1.09885                  
  R11                   1.09885                  
  R12                   1.63283                  
  R13                   1.23663                  
  R14                   1.41739                  
  R15                   1.01333                  
  R16                   1.59372                  
  R17                   1.09252                  
  R18                   1.09278                  
  R19                   1.09252                  
  A3                  111.43207                  
  A4                  111.43252                  
  A5                  113.72128                  
  A6                  113.45933                  
  A7                  129.09516                  
  A8                  121.94885                  
  A9                  121.14632                  
  A10                 107.08635                  
  A11                 107.08641                  
  A12                 119.85884                  
  A13                 119.85673                  
  A14                 117.09795                  
  A15                 114.81609                  
  A16                 133.52979                  
  A17                 107.33831                  
  A18                 107.10156                  
  A19                 107.33836                  
  D4                 -124.1572                   
  D5                  117.92181                  
  D6                  179.99331                  
  D7                  179.99975                  
  D8                    0.00024                  
  D9                  179.99976                  
  D10                  57.19373                  
  D11                -114.38837                  
  D12                 122.80588                  
  D13                  -0.0001                   
  D14                 180.                       
  D15                  -0.00011                  
  D16                -179.99989                  
  D17                -119.50645                  
  D18                 119.50612                  
  D19                -120.98785                  
 
 NAtoms=     19 NQM=       19 NQMF=       0 NMMI=      0 NMMIF=      0
                NMic=       0 NMicF=      0.
                    Isotopes and Nuclear Properties:
 (Nuclear quadrupole moments (NQMom) in fm**2, nuclear magnetic moments (NMagM)
  in nuclear magnetons)

  Atom         1           2           3           4           5           6           7           8           9          10
 IAtWgt=          12           1           1           1          12          16          14           1          12           1
 AtmWgt=  12.0000000   1.0078250   1.0078250   1.0078250  12.0000000  15.9949146  14.0030740   1.0078250  12.0000000   1.0078250
 NucSpn=           0           1           1           1           0           0           2           1           0           1
 AtZEff=   0.0000000   0.0000000   0.0000000   0.0000000   0.0000000   0.0000000   0.0000000   0.0000000   0.0000000   0.0000000
 NQMom=    0.0000000   0.0000000   0.0000000   0.0000000   0.0000000   0.0000000   2.0440000   0.0000000   0.0000000   0.0000000
 NMagM=    0.0000000   2.7928460   2.7928460   2.7928460   0.0000000   0.0000000   0.4037610   2.7928460   0.0000000   2.7928460
 AtZNuc=   6.0000000   1.0000000   1.0000000   1.0000000   6.0000000   8.0000000   7.0000000   1.0000000   6.0000000   1.0000000

  Atom        11          12          13          14          15          16          17          18          19
 IAtWgt=           1          12          16          14           1          12           1           1           1
 AtmWgt=   1.0078250  12.0000000  15.9949146  14.0030740   1.0078250  12.0000000   1.0078250   1.0078250   1.0078250
 NucSpn=           1           0           0           2           1           0           1           1           1
 AtZEff=   0.0000000   0.0000000   0.0000000   0.0000000   0.0000000   0.0000000   0.0000000   0.0000000   0.0000000
 NQMom=    0.0000000   0.0000000   0.0000000   2.0440000   0.0000000   0.0000000   0.0000000   0.0000000   0.0000000
 NMagM=    2.7928460   0.0000000   0.0000000   0.4037610   2.7928460   0.0000000   2.7928460   2.7928460   2.7928460
 AtZNuc=   1.0000000   6.0000000   8.0000000   7.0000000   1.0000000   6.0000000   1.0000000   1.0000000   1.0000000
 Leave Link  101 at Mon Sep  8 11:54:48 2025, MaxMem=    33554432 cpu:         1.5
 (Enter /nexus/posix0/bmm/home/sucerqdl/sw/g09/l103.exe)

 GradGradGradGradGradGradGradGradGradGradGradGradGradGradGradGradGradGrad
 Berny optimization.
 Initialization pass.
                       ----------------------------
                       !    Initial Parameters    !
                       ! (Angstroms and Degrees)  !
 ----------------------                            ----------------------
 !      Name          Value   Derivative information (Atomic Units)     !
 ------------------------------------------------------------------------
 !       R2          1.0944   estimate D2E/DX2                          !
 !       R3          1.0929   estimate D2E/DX2                          !
 !       R4          1.0929   estimate D2E/DX2                          !
 !       R5          1.6746   estimate D2E/DX2                          !
 !       R6          1.2444   estimate D2E/DX2                          !
 !       R7          1.4224   estimate D2E/DX2                          !
 !       R8          1.0124   estimate D2E/DX2                          !
 !       R9          1.5367   estimate D2E/DX2                          !
 !       R10         1.0989   estimate D2E/DX2                          !
 !       R11         1.0989   estimate D2E/DX2                          !
 !       R12         1.6328   estimate D2E/DX2                          !
 !       R13         1.2366   estimate D2E/DX2                          !
 !       R14         1.4174   estimate D2E/DX2                          !
 !       R15         1.0133   estimate D2E/DX2                          !
 !       R16         1.5937   estimate D2E/DX2                          !
 !       R17         1.0925   estimate D2E/DX2                          !
 !       R18         1.0928   estimate D2E/DX2                          !
 !       R19         1.0925   estimate D2E/DX2                          !
 !       A3        111.4321   estimate D2E/DX2                          !
 !       A4        111.4325   estimate D2E/DX2                          !
 !       A5        113.7213   estimate D2E/DX2                          !
 !       A6        113.4593   estimate D2E/DX2                          !
 !       A7        129.0952   estimate D2E/DX2                          !
 !       A8        121.9489   estimate D2E/DX2                          !
 !       A9        121.1463   estimate D2E/DX2                          !
 !       A10       107.0864   estimate D2E/DX2                          !
 !       A11       107.0864   estimate D2E/DX2                          !
 !       A12       119.8588   estimate D2E/DX2                          !
 !       A13       119.8567   estimate D2E/DX2                          !
 !       A14       117.098    estimate D2E/DX2                          !
 !       A15       114.8161   estimate D2E/DX2                          !
 !       A16       133.5298   estimate D2E/DX2                          !
 !       A17       107.3383   estimate D2E/DX2                          !
 !       A18       107.1016   estimate D2E/DX2                          !
 !       A19       107.3384   estimate D2E/DX2                          !
 !       D4       -124.1572   estimate D2E/DX2                          !
 !       D5        117.9218   estimate D2E/DX2                          !
 !       D6        179.9933   estimate D2E/DX2                          !
 !       D7        179.9998   estimate D2E/DX2                          !
 !       D8          0.0002   estimate D2E/DX2                          !
 !       D9        179.9998   estimate D2E/DX2                          !
 !       D10        57.1937   estimate D2E/DX2                          !
 !       D11      -114.3884   estimate D2E/DX2                          !
 !       D12       122.8059   estimate D2E/DX2                          !
 !       D13        -0.0001   estimate D2E/DX2                          !
 !       D14       180.0      estimate D2E/DX2                          !
 !       D15        -0.0001   estimate D2E/DX2                          !
 !       D16      -179.9999   estimate D2E/DX2                          !
 !       D17      -119.5065   estimate D2E/DX2                          !
 !       D18       119.5061   estimate D2E/DX2                          !
 !       D19      -120.9879   estimate D2E/DX2                          !
 ------------------------------------------------------------------------
 Trust Radius=3.00D-01 FncErr=1.00D-07 GrdErr=1.00D-07
 Number of steps in this run=      2 maximum allowed number of steps=      2.
 GradGradGradGradGradGradGradGradGradGradGradGradGradGradGradGradGradGrad

 Leave Link  103 at Mon Sep  8 11:54:48 2025, MaxMem=    33554432 cpu:         0.3
 (Enter /nexus/posix0/bmm/home/sucerqdl/sw/g09/l202.exe)
                          Input orientation:                          
 ---------------------------------------------------------------------
 Center     Atomic      Atomic             Coordinates (Angstroms)
 Number     Number       Type             X           Y           Z
 ---------------------------------------------------------------------
      1          6           0        0.000000    0.000000    0.000000
      2          1           0        0.000000    0.000000    1.094448
      3          1           0        1.017343    0.000000   -0.399349
      4          1           0       -0.571201    0.841848   -0.399357
      5          6           0       -0.717888   -1.354606   -0.673652
      6          8           0       -0.715341   -1.349517   -1.918041
      7          7           0       -1.310246   -2.472633   -0.023858
      8          1           0       -1.349531   -2.547002    0.985083
      9          6           0       -1.922693   -3.628225   -0.830663
     10          1           0       -1.131441   -4.020340   -1.484606
     11          1           0       -2.691605   -3.193623   -1.484399
     12          6           0       -2.594674   -4.896563   -0.052269
     13          8           0       -2.608547   -4.923056    1.183997
     14          7           0       -3.142144   -5.929529   -0.853682
     15          1           0       -3.063003   -5.779921   -1.852773
     16          6           0       -3.871910   -7.306803   -0.521263
     17          1           0       -3.269229   -8.107776   -0.955803
     18          1           0       -3.916940   -7.392070    0.567253
     19          1           0       -4.873200   -7.257839   -0.955576
 ---------------------------------------------------------------------
                    Distance matrix (angstroms):
                    1          2          3          4          5
     1  C    0.000000
     2  H    1.094448   0.000000
     3  H    1.092917   1.807323   0.000000
     4  H    1.092915   1.807327   1.797826   0.000000
     5  C    1.674553   2.340192   2.218384   2.218370   0.000000
     6  O    2.451896   3.377573   2.670172   2.670067   1.244402
     7  N    2.798433   3.013514   3.416516   3.416573   1.422359
     8  H    3.046119   2.884513   3.742455   3.742563   2.138266
     9  C    4.189363   4.535065   4.689761   4.689787   2.577896
    10  H    4.432533   4.908647   4.685957   5.013234   2.816879
    11  H    4.432539   4.908606   5.013268   4.685985   2.816887
    12  C    5.541786   5.658942   6.094544   6.094610   4.056341
    13  O    5.695862   5.572164   6.315896   6.316004   4.445142
    14  N    6.764699   6.987674   7.257208   7.257252   5.180670
    15  H    6.798694   7.174648   7.222821   7.222833   5.145221
    16  C    8.285697   8.425650   8.792556   8.792614   6.737932
    17  H    8.794171   8.979277   9.188056   9.364014   7.224559
    18  H    8.384921   8.382306   8.940032   8.940118   6.944404
    19  H    8.794170   8.979248   9.363979   9.188118   7.224559
                    6          7          8          9         10
     6  O    0.000000
     7  N    2.281059   0.000000
     8  H    3.203794   1.012440   0.000000
     9  C    2.798678   1.536691   2.189632   0.000000
    10  H    2.737573   2.135686   2.884034   1.098851   0.000000
    11  H    2.737588   2.135687   2.884028   1.098852   1.765665
    12  C    4.426571   2.743355   2.854280   1.632832   2.227197
    13  O    5.096769   3.024743   2.696353   2.491152   3.180908
    14  N    5.291384   3.999323   4.246882   2.604533   2.843588
    15  H    5.014404   4.165962   4.630461   2.640987   2.638674
    16  C    6.885069   5.493518   5.593494   4.174580   4.386233
    17  H    7.288505   6.038292   6.194714   4.679231   4.642941
    18  H    7.275945   5.598672   5.499168   4.483049   4.830910
    19  H    7.288511   6.038289   6.194706   4.679230   4.976145
                   11         12         13         14         15
    11  H    0.000000
    12  C    2.227195   0.000000
    13  O    3.180908   1.236628   0.000000
    14  N    2.843584   1.417394   2.334492   0.000000
    15  H    2.638669   2.059482   3.187902   1.013325   0.000000
    16  C    4.386229   2.767769   3.191591   1.593721   2.181426
    17  H    4.976140   3.403423   3.893288   2.184340   2.503197
    18  H    4.830909   2.891323   2.861520   2.181374   3.030637
    19  H    4.642937   3.403420   3.893281   2.184341   2.503201
                   16         17         18         19
    16  C    0.000000
    17  H    1.092523   0.000000
    18  H    1.092778   1.803181   0.000000
    19  H    1.092523   1.815245   1.803180   0.000000
 Stoichiometry    C5H10N2O2
 Framework group  C1[X(C5H10N2O2)]
 Deg. of freedom    51
 Full point group                 C1      NOp   1
 Largest Abelian subgroup         C1      NOp   1
 Largest concise Abelian subgroup C1      NOp   1
                         Standard orientation:                         
 ---------------------------------------------------------------------
 Center     Atomic      Atomic             Coordinates (Angstroms)
 Number     Number       Type             X           Y           Z
 ---------------------------------------------------------------------
      1          6           0        4.012739    0.595433   -0.000001
      2          1           0        3.964918    1.688836   -0.000125
      3          1           0        4.506071    0.217381    0.898980
      4          1           0        4.506155    0.217172   -0.898846
      5          6           0        2.510562   -0.144562   -0.000001
      6          8           0        2.570618   -1.387513    0.000007
      7          7           0        1.218122    0.449328   -0.000005
      8          1           0        1.090010    1.453631   -0.000012
      9          6           0       -0.053231   -0.413852   -0.000005
     10          1           0       -0.000681   -1.066020    0.882825
     11          1           0       -0.000687   -1.066014   -0.882840
     12          6           0       -1.521225    0.301083    0.000000
     13          8           0       -1.605118    1.534862    0.000006
     14          7           0       -2.654169   -0.550646   -0.000002
     15          1           0       -2.441425   -1.541387   -0.000008
     16          6           0       -4.225872   -0.286648    0.000001
     17          1           0       -4.632043   -0.739264    0.907619
     18          1           0       -4.369768    0.796615    0.000012
     19          1           0       -4.632045   -0.739244   -0.907626
 ---------------------------------------------------------------------
 Rotational constants (GHZ):      5.0438960      0.5560014      0.5056680
 Leave Link  202 at Mon Sep  8 11:54:48 2025, MaxMem=    33554432 cpu:         0.1
 (Enter /nexus/posix0/bmm/home/sucerqdl/sw/g09/l301.exe)
 Standard basis: 6-31+G (6D, 7F)
 Ernie: Thresh=  0.10000D-02 Tol=  0.10000D-05 Strict=F.
 There are   137 symmetry adapted cartesian basis functions of A   symmetry.
 There are   137 symmetry adapted basis functions of A   symmetry.
   137 basis functions,   274 primitive gaussians,   137 cartesian basis functions
    35 alpha electrons       35 beta electrons
       nuclear repulsion energy       422.6805495760 Hartrees.
 IExCor= 3226 DFT=T Ex+Corr=BMK ExCW=0 ScaHFX=  0.420000
 ScaDFX=  1.000000  1.000000  1.000000  1.000000 ScalE2=  1.000000  1.000000
 IRadAn=      0 IRanWt=     -1 IRanGd=            0 ICorTp=0 IEmpDi=  4
 NAtoms=   19 NActive=   19 NUniq=   19 SFac= 1.00D+00 NAtFMM=   60 NAOKFM=F Big=F
 Integral buffers will be    131072 words long.
 Raffenetti 2 integral format.
 Two-electron integral symmetry is turned on.
 Leave Link  301 at Mon Sep  8 11:54:48 2025, MaxMem=    33554432 cpu:         0.7
 (Enter /nexus/posix0/bmm/home/sucerqdl/sw/g09/l302.exe)
 NPDir=0 NMtPBC=     1 NCelOv=     1 NCel=       1 NClECP=     1 NCelD=      1
         NCelK=      1 NCelE2=     1 NClLst=     1 CellRange=     0.0.
 One-electron integrals computed using PRISM.
 PrsmSu:  requested number of processors reduced to:   9 ShMem   1 Linda.
 NBasis=   137 RedAO= T EigKep=  3.02D-05  NBF=   137
 NBsUse=   137 1.00D-06 EigRej= -1.00D+00 NBFU=   137
 Precomputing XC quadrature grid using
 IXCGrd= 4 IRadAn=           0 IRanWt=          -1 IRanGd=           0 AccXCQ= 0.00D+00.
 Generated NRdTot=       0 NPtTot=           0 NUsed=           0 NTot=          32
 NSgBfM=   136   136   136   136   136 MxSgAt=    19 MxSgA2=    19.
 Leave Link  302 at Mon Sep  8 11:54:49 2025, MaxMem=    33554432 cpu:         1.8
 (Enter /nexus/posix0/bmm/home/sucerqdl/sw/g09/l303.exe)
 DipDrv:  MaxL=1.
 Leave Link  303 at Mon Sep  8 11:54:49 2025, MaxMem=    33554432 cpu:         0.4
 (Enter /nexus/posix0/bmm/home/sucerqdl/sw/g09/l401.exe)
 ExpMin= 4.38D-02 ExpMax= 5.48D+03 ExpMxC= 8.25D+02 IAcc=2 IRadAn=         4 AccDes= 0.00D+00
 Harris functional with IExCor= 1009 and IRadAn=       4 diagonalized for initial guess.
 HarFok:  IExCor= 1009 AccDes= 0.00D+00 IRadAn=         4 IDoV= 1 UseB2=F ITyADJ=14
 ICtDFT=  3500011 ScaDFX=  1.000000  1.000000  1.000000  1.000000
 FoFCou: FMM=F IPFlag=           0 FMFlag=      100000 FMFlg1=           0
         NFxFlg=           0 DoJE=T BraDBF=F KetDBF=T FulRan=T
         wScrn=  0.000000 ICntrl=     500 IOpCl=  0 I1Cent=   200000004 NGrid=           0
         NMat0=    1 NMatS0=      1 NMatT0=    0 NMatD0=    1 NMtDS0=    0 NMtDT0=    0
 Petite list used in FoFCou.
 Harris En= -455.955939062678    
 JPrj=0 DoOrth=F DoCkMO=F.
 Leave Link  401 at Mon Sep  8 11:54:49 2025, MaxMem=    33554432 cpu:         3.0
 (Enter /nexus/posix0/bmm/home/sucerqdl/sw/g09/l502.exe)
 Closed shell SCF:
 Using DIIS extrapolation, IDIIS=  1040.
 Integral symmetry usage will be decided dynamically.
 IVT=       78102 IEndB=       78102 NGot=    33554432 MDV=    33511877
 LenX=    33511877 LenY=    33492667
 Requested convergence on RMS density matrix=1.00D-08 within 128 cycles.
 Requested convergence on MAX density matrix=1.00D-06.
 Requested convergence on             energy=1.00D-06.
 No special actions if energy rises.
 Fock matrices will be formed incrementally for  20 cycles.

 Cycle   1  Pass 1  IDiag  1:
 FoFJK:  IHMeth= 1 ICntrl=       0 DoSepK=F KAlg= 0 I1Cent=   0 FoldK=F
 IRaf= 890000000 NMat=   1 IRICut=       1 DoRegI=T DoRafI=F ISym2E= 0.
 FoFCou: FMM=F IPFlag=           0 FMFlag=      100000 FMFlg1=           0
         NFxFlg=           0 DoJE=F BraDBF=F KetDBF=F FulRan=T
         wScrn=  0.000000 ICntrl=       0 IOpCl=  0 I1Cent=           0 NGrid=           0
         NMat0=    1 NMatS0=      1 NMatT0=    0 NMatD0=    1 NMtDS0=    0 NMtDT0=    0
 Symmetry not used in FoFCou.
 E= -455.863949869926    
 DIIS: error= 3.87D-02 at cycle   1 NSaved=   1.
 NSaved= 1 IEnMin= 1 EnMin= -455.863949869926     IErMin= 1 ErrMin= 3.87D-02
 ErrMax= 3.87D-02  0.00D+00 EMaxC= 1.00D-01 BMatC= 2.70D-01 BMatP= 2.70D-01
 IDIUse=3 WtCom= 6.13D-01 WtEn= 3.87D-01
 Coeff-Com:  0.100D+01
 Coeff-En:   0.100D+01
 Coeff:      0.100D+01
 Gap=     0.326 Goal=   None    Shift=    0.000
 GapD=    0.326 DampG=1.000 DampE=0.500 DampFc=0.5000 IDamp=-1.
 Damping current iteration by 5.00D-01
 RMSDP=3.02D-02 MaxDP=1.60D+00              OVMax= 2.89D-01

 Cycle   2  Pass 1  IDiag  1:
 RMSU=  1.25D-02    CP:  1.18D+00
 E= -455.922663206512     Delta-E=       -0.058713336586 Rises=F Damp=T
 DIIS: error= 2.04D-02 at cycle   2 NSaved=   2.
 NSaved= 2 IEnMin= 2 EnMin= -455.922663206512     IErMin= 2 ErrMin= 2.04D-02
 ErrMax= 2.04D-02  0.00D+00 EMaxC= 1.00D-01 BMatC= 4.56D-02 BMatP= 2.70D-01
 IDIUse=3 WtCom= 7.96D-01 WtEn= 2.04D-01
 Coeff-Com:  0.245D+00 0.755D+00
 Coeff-En:   0.367D+00 0.633D+00
 Coeff:      0.269D+00 0.731D+00
 Gap=     0.323 Goal=   None    Shift=    0.000
 RMSDP=1.33D-02 MaxDP=8.20D-01 DE=-5.87D-02 OVMax= 1.47D-01

 Cycle   3  Pass 1  IDiag  1:
 RMSU=  5.10D-03    CP:  9.92D-01  3.21D-01
 E= -456.087422441842     Delta-E=       -0.164759235330 Rises=F Damp=F
 DIIS: error= 1.35D-02 at cycle   3 NSaved=   3.
 NSaved= 3 IEnMin= 3 EnMin= -456.087422441842     IErMin= 3 ErrMin= 1.35D-02
 ErrMax= 1.35D-02  0.00D+00 EMaxC= 1.00D-01 BMatC= 1.68D-02 BMatP= 4.56D-02
 IDIUse=3 WtCom= 8.65D-01 WtEn= 1.35D-01
 Coeff-Com:  0.930D-01 0.380D+00 0.526D+00
 Coeff-En:   0.000D+00 0.000D+00 0.100D+01
 Coeff:      0.805D-01 0.329D+00 0.590D+00
 Gap=     0.331 Goal=   None    Shift=    0.000
 RMSDP=1.73D-03 MaxDP=4.48D-02 DE=-1.65D-01 OVMax= 4.23D-02

 Cycle   4  Pass 1  IDiag  1:
 RMSU=  1.39D-03    CP:  1.01D+00  3.86D-01  9.82D-01
 E= -456.101434486779     Delta-E=       -0.014012044937 Rises=F Damp=F
 DIIS: error= 4.86D-03 at cycle   4 NSaved=   4.
 NSaved= 4 IEnMin= 4 EnMin= -456.101434486779     IErMin= 4 ErrMin= 4.86D-03
 ErrMax= 4.86D-03  0.00D+00 EMaxC= 1.00D-01 BMatC= 2.38D-03 BMatP= 1.68D-02
 IDIUse=3 WtCom= 9.51D-01 WtEn= 4.86D-02
 Coeff-Com:  0.194D-01 0.358D-01 0.275D+00 0.670D+00
 Coeff-En:   0.000D+00 0.000D+00 0.649D-01 0.935D+00
 Coeff:      0.184D-01 0.340D-01 0.265D+00 0.683D+00
 Gap=     0.330 Goal=   None    Shift=    0.000
 RMSDP=6.99D-04 MaxDP=2.79D-02 DE=-1.40D-02 OVMax= 1.21D-02

 Cycle   5  Pass 1  IDiag  1:
 RMSU=  3.06D-04    CP:  9.99D-01  3.50D-01  1.00D+00  8.11D-01
 E= -456.103282175105     Delta-E=       -0.001847688326 Rises=F Damp=F
 DIIS: error= 1.27D-03 at cycle   5 NSaved=   5.
 NSaved= 5 IEnMin= 5 EnMin= -456.103282175105     IErMin= 5 ErrMin= 1.27D-03
 ErrMax= 1.27D-03  0.00D+00 EMaxC= 1.00D-01 BMatC= 1.70D-04 BMatP= 2.38D-03
 IDIUse=3 WtCom= 9.87D-01 WtEn= 1.27D-02
 Coeff-Com:  0.378D-02-0.159D-01 0.911D-01 0.348D+00 0.573D+00
 Coeff-En:   0.000D+00 0.000D+00 0.000D+00 0.000D+00 0.100D+01
 Coeff:      0.373D-02-0.157D-01 0.899D-01 0.343D+00 0.579D+00
 Gap=     0.329 Goal=   None    Shift=    0.000
 RMSDP=2.62D-04 MaxDP=1.57D-02 DE=-1.85D-03 OVMax= 3.73D-03

 Cycle   6  Pass 1  IDiag  1:
 RMSU=  1.06D-04    CP:  9.95D-01  3.40D-01  1.02D+00  8.38D-01  7.79D-01
 E= -456.103440014222     Delta-E=       -0.000157839117 Rises=F Damp=F
 DIIS: error= 2.90D-04 at cycle   6 NSaved=   6.
 NSaved= 6 IEnMin= 6 EnMin= -456.103440014222     IErMin= 6 ErrMin= 2.90D-04
 ErrMax= 2.90D-04  0.00D+00 EMaxC= 1.00D-01 BMatC= 8.81D-06 BMatP= 1.70D-04
 IDIUse=3 WtCom= 9.97D-01 WtEn= 2.90D-03
 Coeff-Com:  0.180D-02-0.939D-02 0.242D-01 0.936D-01 0.229D+00 0.661D+00
 Coeff-En:   0.000D+00 0.000D+00 0.000D+00 0.000D+00 0.000D+00 0.100D+01
 Coeff:      0.180D-02-0.936D-02 0.242D-01 0.934D-01 0.228D+00 0.662D+00
 Gap=     0.328 Goal=   None    Shift=    0.000
 RMSDP=9.35D-05 MaxDP=5.14D-03 DE=-1.58D-04 OVMax= 4.83D-04

 Cycle   7  Pass 1  IDiag  1:
 RMSU=  3.39D-05    CP:  9.94D-01  3.35D-01  1.02D+00  8.39D-01  8.21D-01
                    CP:  1.03D+00
 E= -456.103447277935     Delta-E=       -0.000007263713 Rises=F Damp=F
 DIIS: error= 7.25D-05 at cycle   7 NSaved=   7.
 NSaved= 7 IEnMin= 7 EnMin= -456.103447277935     IErMin= 7 ErrMin= 7.25D-05
 ErrMax= 7.25D-05  0.00D+00 EMaxC= 1.00D-01 BMatC= 1.16D-06 BMatP= 8.81D-06
 IDIUse=1 WtCom= 1.00D+00 WtEn= 0.00D+00
 Coeff-Com:  0.661D-03-0.187D-02-0.437D-02-0.233D-01 0.141D-02 0.250D+00
 Coeff-Com:  0.778D+00
 Coeff:      0.661D-03-0.187D-02-0.437D-02-0.233D-01 0.141D-02 0.250D+00
 Coeff:      0.778D+00
 Gap=     0.328 Goal=   None    Shift=    0.000
 RMSDP=2.96D-05 MaxDP=9.15D-04 DE=-7.26D-06 OVMax= 3.91D-04

 Cycle   8  Pass 1  IDiag  1:
 RMSU=  1.58D-05    CP:  9.94D-01  3.33D-01  1.02D+00  8.38D-01  8.50D-01
                    CP:  1.04D+00  1.01D+00
 E= -456.103448248092     Delta-E=       -0.000000970157 Rises=F Damp=F
 DIIS: error= 5.05D-05 at cycle   8 NSaved=   8.
 NSaved= 8 IEnMin= 8 EnMin= -456.103448248092     IErMin= 8 ErrMin= 5.05D-05
 ErrMax= 5.05D-05  0.00D+00 EMaxC= 1.00D-01 BMatC= 2.41D-07 BMatP= 1.16D-06
 IDIUse=1 WtCom= 1.00D+00 WtEn= 0.00D+00
 Coeff-Com:  0.272D-03-0.327D-03-0.479D-02-0.232D-01-0.206D-01 0.805D-01
 Coeff-Com:  0.476D+00 0.492D+00
 Coeff:      0.272D-03-0.327D-03-0.479D-02-0.232D-01-0.206D-01 0.805D-01
 Coeff:      0.476D+00 0.492D+00
 Gap=     0.328 Goal=   None    Shift=    0.000
 RMSDP=1.51D-05 MaxDP=7.00D-04 DE=-9.70D-07 OVMax= 1.67D-04

 Cycle   9  Pass 1  IDiag  1:
 RMSU=  7.33D-06    CP:  9.93D-01  3.33D-01  1.02D+00  8.38D-01  8.58D-01
                    CP:  1.04D+00  1.16D+00  9.76D-01
 E= -456.103448433843     Delta-E=       -0.000000185752 Rises=F Damp=F
 DIIS: error= 1.26D-05 at cycle   9 NSaved=   9.
 NSaved= 9 IEnMin= 9 EnMin= -456.103448433843     IErMin= 9 ErrMin= 1.26D-05
 ErrMax= 1.26D-05  0.00D+00 EMaxC= 1.00D-01 BMatC= 1.81D-08 BMatP= 2.41D-07
 IDIUse=1 WtCom= 1.00D+00 WtEn= 0.00D+00
 Coeff-Com: -0.342D-04 0.243D-03-0.544D-03-0.300D-02-0.720D-02-0.345D-01
 Coeff-Com:  0.107D-01 0.221D+00 0.813D+00
 Coeff:     -0.342D-04 0.243D-03-0.544D-03-0.300D-02-0.720D-02-0.345D-01
 Coeff:      0.107D-01 0.221D+00 0.813D+00
 Gap=     0.328 Goal=   None    Shift=    0.000
 RMSDP=2.84D-06 MaxDP=5.29D-05 DE=-1.86D-07 OVMax= 6.23D-05

 Cycle  10  Pass 1  IDiag  1:
 RMSU=  1.62D-06    CP:  9.93D-01  3.32D-01  1.02D+00  8.37D-01  8.59D-01
                    CP:  1.05D+00  1.16D+00  1.03D+00  8.21D-01
 E= -456.103448452929     Delta-E=       -0.000000019085 Rises=F Damp=F
 DIIS: error= 1.94D-06 at cycle  10 NSaved=  10.
 NSaved=10 IEnMin=10 EnMin= -456.103448452929     IErMin=10 ErrMin= 1.94D-06
 ErrMax= 1.94D-06  0.00D+00 EMaxC= 1.00D-01 BMatC= 3.74D-10 BMatP= 1.81D-08
 IDIUse=1 WtCom= 1.00D+00 WtEn= 0.00D+00
 Coeff-Com: -0.194D-04 0.839D-04 0.101D-04-0.146D-03-0.137D-02-0.126D-01
 Coeff-Com: -0.998D-02 0.401D-01 0.235D+00 0.749D+00
 Coeff:     -0.194D-04 0.839D-04 0.101D-04-0.146D-03-0.137D-02-0.126D-01
 Coeff:     -0.998D-02 0.401D-01 0.235D+00 0.749D+00
 Gap=     0.328 Goal=   None    Shift=    0.000
 RMSDP=6.44D-07 MaxDP=1.39D-05 DE=-1.91D-08 OVMax= 6.36D-06

 Cycle  11  Pass 1  IDiag  1:
 RMSU=  3.58D-07    CP:  9.93D-01  3.32D-01  1.02D+00  8.37D-01  8.59D-01
                    CP:  1.05D+00  1.17D+00  1.03D+00  8.66D-01  1.01D+00
 E= -456.103448453303     Delta-E=       -0.000000000374 Rises=F Damp=F
 DIIS: error= 8.69D-07 at cycle  11 NSaved=  11.
 NSaved=11 IEnMin=11 EnMin= -456.103448453303     IErMin=11 ErrMin= 8.69D-07
 ErrMax= 8.69D-07  0.00D+00 EMaxC= 1.00D-01 BMatC= 8.17D-11 BMatP= 3.74D-10
 IDIUse=1 WtCom= 1.00D+00 WtEn= 0.00D+00
 Coeff-Com: -0.525D-05 0.109D-04 0.733D-04 0.279D-03 0.246D-03-0.158D-02
 Coeff-Com: -0.581D-02-0.939D-02 0.850D-02 0.351D+00 0.656D+00
 Coeff:     -0.525D-05 0.109D-04 0.733D-04 0.279D-03 0.246D-03-0.158D-02
 Coeff:     -0.581D-02-0.939D-02 0.850D-02 0.351D+00 0.656D+00
 Gap=     0.328 Goal=   None    Shift=    0.000
 RMSDP=1.88D-07 MaxDP=9.05D-06 DE=-3.74D-10 OVMax= 3.32D-06

 Cycle  12  Pass 1  IDiag  1:
 RMSU=  1.25D-07    CP:  9.93D-01  3.32D-01  1.02D+00  8.37D-01  8.59D-01
                    CP:  1.05D+00  1.17D+00  1.03D+00  8.70D-01  1.05D+00
                    CP:  8.08D-01
 E= -456.103448453384     Delta-E=       -0.000000000082 Rises=F Damp=F
 DIIS: error= 1.84D-07 at cycle  12 NSaved=  12.
 NSaved=12 IEnMin=12 EnMin= -456.103448453384     IErMin=12 ErrMin= 1.84D-07
 ErrMax= 1.84D-07  0.00D+00 EMaxC= 1.00D-01 BMatC= 5.90D-12 BMatP= 8.17D-11
 IDIUse=1 WtCom= 1.00D+00 WtEn= 0.00D+00
 Coeff-Com: -0.849D-06-0.259D-06 0.298D-04 0.113D-03 0.183D-03 0.198D-03
 Coeff-Com: -0.190D-02-0.586D-02-0.130D-01 0.938D-01 0.272D+00 0.654D+00
 Coeff:     -0.849D-06-0.259D-06 0.298D-04 0.113D-03 0.183D-03 0.198D-03
 Coeff:     -0.190D-02-0.586D-02-0.130D-01 0.938D-01 0.272D+00 0.654D+00
 Gap=     0.328 Goal=   None    Shift=    0.000
 RMSDP=4.98D-08 MaxDP=2.08D-06 DE=-8.16D-11 OVMax= 5.91D-07

 Cycle  13  Pass 1  IDiag  1:
 RMSU=  2.41D-08    CP:  9.93D-01  3.32D-01  1.02D+00  8.37D-01  8.59D-01
                    CP:  1.05D+00  1.17D+00  1.03D+00  8.69D-01  1.06D+00
                    CP:  8.18D-01  9.71D-01
 E= -456.103448453391     Delta-E=       -0.000000000007 Rises=F Damp=F
 DIIS: error= 5.52D-08 at cycle  13 NSaved=  13.
 NSaved=13 IEnMin=13 EnMin= -456.103448453391     IErMin=13 ErrMin= 5.52D-08
 ErrMax= 5.52D-08  0.00D+00 EMaxC= 1.00D-01 BMatC= 6.63D-13 BMatP= 5.90D-12
 IDIUse=1 WtCom= 1.00D+00 WtEn= 0.00D+00
 Coeff-Com:  0.305D-06-0.152D-05 0.591D-05 0.186D-04 0.598D-04 0.294D-03
 Coeff-Com: -0.222D-03-0.143D-02-0.719D-02-0.179D-02 0.434D-01 0.293D+00
 Coeff-Com:  0.674D+00
 Coeff:      0.305D-06-0.152D-05 0.591D-05 0.186D-04 0.598D-04 0.294D-03
 Coeff:     -0.222D-03-0.143D-02-0.719D-02-0.179D-02 0.434D-01 0.293D+00
 Coeff:      0.674D+00
 Gap=     0.328 Goal=   None    Shift=    0.000
 RMSDP=2.05D-08 MaxDP=7.25D-07 DE=-6.82D-12 OVMax= 1.50D-07

 Cycle  14  Pass 1  IDiag  1:
 RMSU=  1.09D-08    CP:  9.93D-01  3.32D-01  1.02D+00  8.37D-01  8.59D-01
                    CP:  1.05D+00  1.16D+00  1.03D+00  8.69D-01  1.06D+00
                    CP:  8.28D-01  9.80D-01  9.04D-01
 E= -456.103448453396     Delta-E=       -0.000000000005 Rises=F Damp=F
 DIIS: error= 1.00D-08 at cycle  14 NSaved=  14.
 NSaved=14 IEnMin=14 EnMin= -456.103448453396     IErMin=14 ErrMin= 1.00D-08
 ErrMax= 1.00D-08  0.00D+00 EMaxC= 1.00D-01 BMatC= 1.34D-14 BMatP= 6.63D-13
 IDIUse=1 WtCom= 1.00D+00 WtEn= 0.00D+00
 Coeff-Com:  0.895D-07-0.208D-06-0.316D-06-0.279D-05 0.138D-05 0.343D-04
 Coeff-Com:  0.543D-04-0.146D-04-0.402D-03-0.460D-02-0.608D-02 0.147D-01
 Coeff-Com:  0.110D+00 0.887D+00
 Coeff:      0.895D-07-0.208D-06-0.316D-06-0.279D-05 0.138D-05 0.343D-04
 Coeff:      0.543D-04-0.146D-04-0.402D-03-0.460D-02-0.608D-02 0.147D-01
 Coeff:      0.110D+00 0.887D+00
 Gap=     0.328 Goal=   None    Shift=    0.000
 RMSDP=2.97D-09 MaxDP=7.14D-08 DE=-5.23D-12 OVMax= 3.20D-08

 SCF Done:  E(RBMK) =  -456.103448453     A.U. after   14 cycles
            NFock= 14  Conv=0.30D-08     -V/T= 2.0078
 KE= 4.525596219763D+02 PE=-1.909865193846D+03 EE= 5.785215738404D+02
 Leave Link  502 at Mon Sep  8 11:54:54 2025, MaxMem=    33554432 cpu:        81.3
 (Enter /nexus/posix0/bmm/home/sucerqdl/sw/g09/l601.exe)
 Copying SCF densities to generalized density rwf, IOpCl= 0 IROHF=0.

 **********************************************************************

            Population analysis using the SCF density.

 **********************************************************************

 Orbital symmetries:
       Occupied  (A) (A) (A) (A) (A) (A) (A) (A) (A) (A) (A) (A)
                 (A) (A) (A) (A) (A) (A) (A) (A) (A) (A) (A) (A)
                 (A) (A) (A) (A) (A) (A) (A) (A) (A) (A) (A)
       Virtual   (A) (A) (A) (A) (A) (A) (A) (A) (A) (A) (A) (A)
                 (A) (A) (A) (A) (A) (A) (A) (A) (A) (A) (A) (A)
                 (A) (A) (A) (A) (A) (A) (A) (A) (A) (A) (A) (A)
                 (A) (A) (A) (A) (A) (A) (A) (A) (A) (A) (A) (A)
                 (A) (A) (A) (A) (A) (A) (A) (A) (A) (A) (A) (A)
                 (A) (A) (A) (A) (A) (A) (A) (A) (A) (A) (A) (A)
                 (A) (A) (A) (A) (A) (A) (A) (A) (A) (A) (A) (A)
                 (A) (A) (A) (A) (A) (A) (A) (A) (A) (A) (A) (A)
                 (A) (A) (A) (A) (A) (A)
 The electronic state is 1-A.
 Alpha  occ. eigenvalues --  -19.54012 -19.52242 -14.72595 -14.71857 -10.63025
 Alpha  occ. eigenvalues --  -10.61545 -10.54633 -10.53676 -10.49652  -1.15136
 Alpha  occ. eigenvalues --   -1.13732  -0.99335  -0.98326  -0.81744  -0.79375
 Alpha  occ. eigenvalues --   -0.76451  -0.64507  -0.63871  -0.58160  -0.52915
 Alpha  occ. eigenvalues --   -0.52313  -0.51849  -0.50514  -0.49645  -0.48531
 Alpha  occ. eigenvalues --   -0.47530  -0.45612  -0.44651  -0.44013  -0.43339
 Alpha  occ. eigenvalues --   -0.40750  -0.31640  -0.30963  -0.29717  -0.29562
 Alpha virt. eigenvalues --    0.03249   0.03331   0.03974   0.03992   0.04754
 Alpha virt. eigenvalues --    0.06690   0.07020   0.08026   0.08594   0.09068
 Alpha virt. eigenvalues --    0.09765   0.10229   0.11136   0.11586   0.12441
 Alpha virt. eigenvalues --    0.13037   0.13465   0.15499   0.15743   0.16023
 Alpha virt. eigenvalues --    0.16940   0.17759   0.18903   0.20391   0.20609
 Alpha virt. eigenvalues --    0.21559   0.22788   0.23148   0.23832   0.24123
 Alpha virt. eigenvalues --    0.24449   0.25181   0.26867   0.27219   0.28165
 Alpha virt. eigenvalues --    0.28413   0.28904   0.29891   0.31052   0.31409
 Alpha virt. eigenvalues --    0.31800   0.33410   0.35009   0.36179   0.36395
 Alpha virt. eigenvalues --    0.37380   0.37725   0.39292   0.40697   0.41086
 Alpha virt. eigenvalues --    0.43877   0.45795   0.46238   0.48208   0.53023
 Alpha virt. eigenvalues --    0.56338   0.66814   0.69045   0.69483   0.70912
 Alpha virt. eigenvalues --    0.71311   0.74317   0.77163   0.78909   0.79645
 Alpha virt. eigenvalues --    0.82924   0.84859   0.86022   0.91462   0.93944
 Alpha virt. eigenvalues --    0.98637   0.99582   1.01439   1.03166   1.10451
 Alpha virt. eigenvalues --    1.11987   1.12547   1.12711   1.13666   1.16443
 Alpha virt. eigenvalues --    1.17249   1.19507   1.21789   1.24084   1.24995
 Alpha virt. eigenvalues --    1.29024   1.34247   1.34855   1.36721   1.36789
 Alpha virt. eigenvalues --    1.42608   1.44125   1.47447   1.49925   1.50844
 Alpha virt. eigenvalues --    1.55518   1.57118   1.62238   1.68743   1.84937
 Alpha virt. eigenvalues --    2.04437   2.12804
          Condensed to atoms (all electrons):
               1          2          3          4          5          6
     1  C    6.458219   0.344543   0.412305   0.412317  -0.358329  -0.139469
     2  H    0.344543   0.528805  -0.026053  -0.026053  -0.030687   0.006965
     3  H    0.412305  -0.026053   0.466131  -0.021637  -0.054447  -0.004611
     4  H    0.412317  -0.026053  -0.021637   0.466125  -0.054458  -0.004612
     5  C   -0.358329  -0.030687  -0.054447  -0.054458   5.810046   0.449653
     6  O   -0.139469   0.006965  -0.004611  -0.004612   0.449653   8.489488
     7  N   -0.277045   0.007591   0.000825   0.000827  -0.101370  -0.227698
     8  H    0.011342  -0.000039   0.000015   0.000015   0.022734   0.005714
     9  C   -0.217790   0.001234  -0.004415  -0.004415  -0.806804  -0.045153
    10  H   -0.001991   0.000000   0.000014  -0.000004  -0.000024   0.001043
    11  H   -0.001992   0.000000  -0.000004   0.000014  -0.000023   0.001043
    12  C    0.091279  -0.000090  -0.000427  -0.000427   0.451230   0.012689
    13  O   -0.001864   0.000000   0.000001   0.000001   0.006651  -0.000224
    14  N   -0.000438   0.000009  -0.000001  -0.000001   0.011323  -0.002547
    15  H    0.000081   0.000000   0.000000   0.000000   0.001737   0.000110
    16  C    0.000397   0.000002   0.000000   0.000000   0.005200  -0.000236
    17  H    0.000001   0.000000   0.000000   0.000000   0.000031   0.000000
    18  H   -0.000002   0.000000   0.000000   0.000000  -0.000072   0.000000
    19  H    0.000001   0.000000   0.000000   0.000000   0.000031   0.000000
               7          8          9         10         11         12
     1  C   -0.277045   0.011342  -0.217790  -0.001991  -0.001992   0.091279
     2  H    0.007591  -0.000039   0.001234   0.000000   0.000000  -0.000090
     3  H    0.000825   0.000015  -0.004415   0.000014  -0.000004  -0.000427
     4  H    0.000827   0.000015  -0.004415  -0.000004   0.000014  -0.000427
     5  C   -0.101370   0.022734  -0.806804  -0.000024  -0.000023   0.451230
     6  O   -0.227698   0.005714  -0.045153   0.001043   0.001043   0.012689
     7  N    7.762180   0.260420   0.282627  -0.049863  -0.049863  -0.079535
     8  H    0.260420   0.310675  -0.060959   0.001860   0.001860   0.024512
     9  C    0.282627  -0.060959  11.309656   0.334946   0.334948  -3.719870
    10  H   -0.049863   0.001860   0.334946   0.494147  -0.037125  -0.000974
    11  H   -0.049863   0.001860   0.334948  -0.037125   0.494149  -0.000977
    12  C   -0.079535   0.024512  -3.719870  -0.000974  -0.000977   7.805983
    13  O    0.020381   0.005115   0.066984   0.000756   0.000756   0.230334
    14  N    0.014991   0.002480  -0.783676   0.015821   0.015821   0.523043
    15  H    0.000162  -0.000006   0.049308  -0.000457  -0.000457  -0.040571
    16  C    0.002832   0.000630  -0.199819   0.002828   0.002828   0.007432
    17  H   -0.000023   0.000000   0.005637   0.000010  -0.000003  -0.002956
    18  H   -0.000038   0.000000  -0.009852  -0.000003  -0.000003  -0.008615
    19  H   -0.000023   0.000000   0.005637  -0.000003   0.000010  -0.002956
              13         14         15         16         17         18
     1  C   -0.001864  -0.000438   0.000081   0.000397   0.000001  -0.000002
     2  H    0.000000   0.000009   0.000000   0.000002   0.000000   0.000000
     3  H    0.000001  -0.000001   0.000000   0.000000   0.000000   0.000000
     4  H    0.000001  -0.000001   0.000000   0.000000   0.000000   0.000000
     5  C    0.006651   0.011323   0.001737   0.005200   0.000031  -0.000072
     6  O   -0.000224  -0.002547   0.000110  -0.000236   0.000000   0.000000
     7  N    0.020381   0.014991   0.000162   0.002832  -0.000023  -0.000038
     8  H    0.005115   0.002480  -0.000006   0.000630   0.000000   0.000000
     9  C    0.066984  -0.783676   0.049308  -0.199819   0.005637  -0.009852
    10  H    0.000756   0.015821  -0.000457   0.002828   0.000010  -0.000003
    11  H    0.000756   0.015821  -0.000457   0.002828  -0.000003  -0.000003
    12  C    0.230334   0.523043  -0.040571   0.007432  -0.002956  -0.008615
    13  O    8.480393  -0.221607   0.008441  -0.029036   0.000133   0.005596
    14  N   -0.221607   7.669932   0.266936   0.185597  -0.043242  -0.042407
    15  H    0.008441   0.266936   0.380241  -0.026672  -0.001041   0.002438
    16  C   -0.029036   0.185597  -0.026672   5.274478   0.385028   0.411077
    17  H    0.000133  -0.043242  -0.001041   0.385028   0.504898  -0.022890
    18  H    0.005596  -0.042407   0.002438   0.411077  -0.022890   0.445849
    19  H    0.000133  -0.043242  -0.001041   0.385028  -0.034344  -0.022891
              19
     1  C    0.000001
     2  H    0.000000
     3  H    0.000000
     4  H    0.000000
     5  C    0.000031
     6  O    0.000000
     7  N   -0.000023
     8  H    0.000000
     9  C    0.005637
    10  H   -0.000003
    11  H    0.000010
    12  C   -0.002956
    13  O    0.000133
    14  N   -0.043242
    15  H   -0.001041
    16  C    0.385028
    17  H   -0.034344
    18  H   -0.022891
    19  H    0.504898
 Mulliken charges:
               1
     1  C   -0.731566
     2  H    0.193773
     3  H    0.232305
     4  H    0.232308
     5  C    0.647577
     6  O   -0.542156
     7  N   -0.567377
     8  H    0.413631
     9  C   -0.538223
    10  H    0.239019
    11  H    0.239018
    12  C    0.710898
    13  O   -0.572945
    14  N   -0.568793
    15  H    0.360791
    16  C   -0.407595
    17  H    0.208761
    18  H    0.241813
    19  H    0.208761
 Sum of Mulliken charges =   0.00000
 Mulliken charges with hydrogens summed into heavy atoms:
               1
     1  C   -0.073180
     5  C    0.647577
     6  O   -0.542156
     7  N   -0.153745
     9  C   -0.060186
    12  C    0.710898
    13  O   -0.572945
    14  N   -0.208002
    16  C    0.251740
 Electronic spatial extent (au):  <R**2>=           2160.8559
 Charge=              0.0000 electrons
 Dipole moment (field-independent basis, Debye):
    X=             -2.5506    Y=             -0.5289    Z=              0.0000  Tot=              2.6048
 Quadrupole moment (field-independent basis, Debye-Ang):
   XX=            -39.4871   YY=            -61.7609   ZZ=            -55.3441
   XY=             18.3677   XZ=              0.0000   YZ=              0.0000
 Traceless Quadrupole moment (field-independent basis, Debye-Ang):
   XX=             12.7103   YY=             -9.5635   ZZ=             -3.1467
   XY=             18.3677   XZ=              0.0000   YZ=              0.0000
 Octapole moment (field-independent basis, Debye-Ang**2):
  XXX=            -50.6217  YYY=             -1.3736  ZZZ=              0.0003  XYY=            -10.3681
  XXY=             10.4055  XXZ=              0.0000  XZZ=              1.0616  YZZ=             -2.1658
  YYZ=             -0.0003  XYZ=              0.0003
 Hexadecapole moment (field-independent basis, Debye-Ang**3):
 XXXX=          -2042.9877 YYYY=           -305.3576 ZZZZ=            -74.8077 XXXY=            101.9065
 XXXZ=             -0.0004 YYYX=             54.5490 YYYZ=             -0.0005 ZZZX=              0.0015
 ZZZY=              0.0003 XXYY=           -497.1969 XXZZ=           -413.6063 YYZZ=            -61.8057
 XXYZ=              0.0016 YYXZ=             -0.0010 ZZXY=             -3.0325
 N-N= 4.226805495760D+02 E-N=-1.909865193875D+03  KE= 4.525596219763D+02
 No NMR shielding tensors so no spin-rotation constants.
 Leave Link  601 at Mon Sep  8 11:54:54 2025, MaxMem=    33554432 cpu:         1.4
 (Enter /nexus/posix0/bmm/home/sucerqdl/sw/g09/l701.exe)
 Compute integral first derivatives.
 ... and contract with generalized density number  0.
 PrsmSu:  requested number of processors reduced to:   9 ShMem   1 Linda.
 Leave Link  701 at Mon Sep  8 11:54:54 2025, MaxMem=    33554432 cpu:         1.3
 (Enter /nexus/posix0/bmm/home/sucerqdl/sw/g09/l702.exe)
 L702 exits ... SP integral derivatives will be done elsewhere.
 Leave Link  702 at Mon Sep  8 11:54:54 2025, MaxMem=    33554432 cpu:         0.3
 (Enter /nexus/posix0/bmm/home/sucerqdl/sw/g09/l703.exe)
 Compute integral first derivatives, UseDBF=F ICtDFT=           0.
 Integral derivatives from FoFJK, PRISM(SPDF).
 Calling FoFJK, ICntrl=      2127 FMM=F ISym2X=0 I1Cent= 0 IOpClX= 0 NMat=1 NMatS=1 NMatT=0.
 FoFJK:  IHMeth= 1 ICntrl=    2127 DoSepK=F KAlg= 0 I1Cent=   0 FoldK=F
 IRaf=         0 NMat=   1 IRICut=       1 DoRegI=T DoRafI=F ISym2E= 0.
 FoFCou: FMM=F IPFlag=           0 FMFlag=      100000 FMFlg1=         800
         NFxFlg=           0 DoJE=F BraDBF=F KetDBF=F FulRan=T
         wScrn=  0.000000 ICntrl=    2127 IOpCl=  0 I1Cent=           0 NGrid=           0
         NMat0=    1 NMatS0=      1 NMatT0=    0 NMatD0=    1 NMtDS0=    0 NMtDT0=    0
 Symmetry not used in FoFCou.
 Leave Link  703 at Mon Sep  8 11:54:55 2025, MaxMem=    33554432 cpu:         7.2
 (Enter /nexus/posix0/bmm/home/sucerqdl/sw/g09/l716.exe)
 Dipole        =-1.00347456D+00-2.08094410D-01-1.27505775D-05
 ***** Axes restored to original set *****
 -------------------------------------------------------------------
 Center     Atomic                   Forces (Hartrees/Bohr)
 Number     Number              X              Y              Z
 -------------------------------------------------------------------
      1        6          -0.028283994   -0.053375820   -0.003840500
      2        1           0.000002825    0.000004978    0.000003211
      3        1           0.000022683    0.000037159    0.000007660
      4        1           0.000017852    0.000039833    0.000007783
      5        6           0.000025338    0.000048122    0.000011270
      6        8          -0.000012186   -0.000023173   -0.000005212
      7        7          -0.000000569   -0.000000999    0.000039543
      8        1          -0.000003153   -0.000006005    0.000001080
      9        6          -0.000007193   -0.000013535    0.000012377
     10        1          -0.000001560    0.000003387   -0.000010140
     11        1           0.000003777    0.000000706   -0.000010176
     12        6           0.000015268    0.000028609    0.000013988
     13        8          -0.000000670   -0.000001214    0.000008514
     14        7          -0.000023075   -0.000043433   -0.000018503
     15        1           0.000008417    0.000015815    0.000003530
     16        6           0.028278028    0.053364567    0.003782550
     17        1          -0.000015324   -0.000038146   -0.000003407
     18        1          -0.000003491   -0.000006757   -0.000000053
     19        1          -0.000022975   -0.000034094   -0.000003515
 -------------------------------------------------------------------
 Cartesian Forces:  Max     0.053375820 RMS     0.011336528
 -----------------------------------------------------------------------------------------------
                       Internal Coordinate Forces (Hartree/Bohr or radian)
  Cent   Atom   N1       Length/X         N2         Alpha/Y        N3         Beta/Z          J
 -----------------------------------------------------------------------------------------------
      1  C 
      2  H        1   0.000003(     1)
      3  H        1   0.000018(     2)      2  -0.000032(    19)
      4  H        1   0.000019(     3)      2  -0.000032(    20)      3   0.000071(    36)     0
      5  C        1  -0.056756(     4)      2   0.000106(    21)      3   0.000000(    37)     0
      6  O        5   0.000005(     5)      1   0.000062(    22)      2   0.000000(    38)     0
      7  N        5  -0.051884(     6)      1  -0.065541(    23)      6   0.000000(    39)     0
      8  H        7   0.000002(     7)      5   0.000013(    24)      1   0.000000(    40)     0
      9  C        7  -0.053297(     8)      5  -0.017596(    25)      8   0.000000(    41)     0
     10  H        9   0.000004(     9)      7   0.000005(    26)      5   0.000000(    42)     0
     11  H        9   0.000004(    10)      7   0.000005(    27)     10   0.000020(    43)     0
     12  C        9  -0.051208(    11)      7  -0.065004(    28)     10   0.000000(    44)     0
     13  O       12   0.000009(    12)      9   0.000003(    29)      7   0.000000(    45)     0
     14  N       12  -0.051840(    13)      9  -0.033959(    30)     13   0.000000(    46)     0
     15  H       14   0.000000(    14)     12  -0.000035(    31)      9   0.000000(    47)     0
     16  C       14  -0.058191(    15)     12  -0.049049(    32)     15   0.000000(    48)     0
     17  H       16   0.000021(    16)     14   0.000071(    33)     12   0.000000(    49)     0
     18  H       16   0.000001(    17)     14   0.000016(    34)     17   0.000000(    50)     0
     19  H       16   0.000021(    18)     14   0.000071(    35)     17   0.000016(    51)     0
 -----------------------------------------------------------------------------------------------
 Internal  Forces:  Max     0.065541309 RMS     0.024188552
 Leave Link  716 at Mon Sep  8 11:54:55 2025, MaxMem=    33554432 cpu:         0.5
 (Enter /nexus/posix0/bmm/home/sucerqdl/sw/g09/l103.exe)

 GradGradGradGradGradGradGradGradGradGradGradGradGradGradGradGradGradGrad
 Berny optimization.
 Search for a local minimum.
 Step number   1 out of a maximum of    2
 All quantities printed in internal units (Hartrees-Bohrs-Radians)
 Second derivative matrix not updated -- first step.
 ITU=  0
     Eigenvalues ---    0.01075   0.01252   0.01271   0.01517   0.02568
     Eigenvalues ---    0.02941   0.05225   0.05604   0.06685   0.08352
     Eigenvalues ---    0.08588   0.11023   0.11845   0.13272   0.14009
     Eigenvalues ---    0.14702   0.19284   0.19879   0.19881   0.21655
     Eigenvalues ---    0.22939   0.24000   0.24244   0.24945   0.25000
     Eigenvalues ---    0.25002   0.28814   0.30327   0.33809   0.33809
     Eigenvalues ---    0.34304   0.34478   0.34478   0.34494   0.34523
     Eigenvalues ---    0.34523   0.35797   0.37038   0.37657   0.40690
     Eigenvalues ---    0.41427   0.42107   0.42855   0.45420   0.45566
     Eigenvalues ---    0.53121   0.53123   0.75000   0.75002   0.85340
     Eigenvalues ---    0.88380
 Quadratic step=6.415D-01 exceeds max=3.000D-01 adjusted using Lamda=-2.749D-01.
 Angle between NR and scaled steps=  11.40 degrees.
 Angle between quadratic step and forces=  12.31 degrees.
 Linear search not attempted -- first point.
 Variable       Old X    -DE/DX   Delta X   Delta X   Delta X     New X
                                 (Linear)    (Quad)   (Total)
    R2        2.06821   0.00000   0.00000   0.00001   0.00001   2.06821
    R3        2.06531   0.00002   0.00000   0.00003   0.00003   2.06534
    R4        2.06531   0.00002   0.00000   0.00003   0.00003   2.06534
    R5        3.16445  -0.05676   0.00000  -0.12134  -0.12134   3.04311
    R6        2.35158   0.00001   0.00000   0.00000   0.00000   2.35158
    R7        2.68787  -0.05188   0.00000  -0.07455  -0.07455   2.61332
    R8        1.91323   0.00000   0.00000   0.00000   0.00000   1.91324
    R9        2.90392  -0.05330   0.00000  -0.09466  -0.09466   2.80926
   R10        2.07653   0.00000   0.00000   0.00001   0.00001   2.07653
   R11        2.07653   0.00000   0.00000   0.00001   0.00001   2.07653
   R12        3.08560  -0.05121   0.00000  -0.10420  -0.10420   2.98141
   R13        2.33689   0.00001   0.00000   0.00001   0.00001   2.33690
   R14        2.67849  -0.05184   0.00000  -0.07369  -0.07369   2.60479
   R15        1.91491   0.00000   0.00000   0.00000   0.00000   1.91491
   R16        3.01170  -0.05819   0.00000  -0.11248  -0.11248   2.89922
   R17        2.06457   0.00002   0.00000   0.00003   0.00003   2.06460
   R18        2.06505   0.00000   0.00000   0.00000   0.00000   2.06505
   R19        2.06457   0.00002   0.00000   0.00003   0.00003   2.06460
    A3        1.94486  -0.00003   0.00000  -0.00010  -0.00010   1.94476
    A4        1.94486  -0.00003   0.00000  -0.00008  -0.00008   1.94479
    A5        1.98481   0.00011   0.00000   0.00025   0.00025   1.98506
    A6        1.98024   0.00006   0.00000   0.03054   0.03054   2.01078
    A7        2.25314  -0.06554   0.00000  -0.09443  -0.09443   2.15871
    A8        2.12841   0.00001   0.00000   0.00740   0.00740   2.13581
    A9        2.11440  -0.01760   0.00000  -0.02743  -0.02743   2.08697
   A10        1.86901   0.00001   0.00000   0.01240   0.01240   1.88141
   A11        1.86901   0.00000   0.00000   0.01104   0.01104   1.88005
   A12        2.09193  -0.06500   0.00000  -0.10848  -0.10848   1.98345
   A13        2.09189   0.00000   0.00000   0.01579   0.01579   2.10768
   A14        2.04374  -0.03396   0.00000  -0.04892  -0.04892   1.99482
   A15        2.00392  -0.00003   0.00000   0.02049   0.02049   2.02441
   A16        2.33053  -0.04905   0.00000  -0.07640  -0.07640   2.25414
   A17        1.87341   0.00007   0.00000   0.00016   0.00016   1.87357
   A18        1.86927   0.00002   0.00000   0.00000   0.00000   1.86928
   A19        1.87341   0.00007   0.00000   0.00016   0.00016   1.87357
    D4       -2.16695   0.00007   0.00000   0.00021   0.00021  -2.16674
    D5        2.05812   0.00000   0.00000   0.00004   0.00004   2.05817
    D6        3.14148   0.00000   0.00000   0.00003   0.00003   3.14150
    D7        3.14159   0.00000   0.00000   0.00002   0.00002   3.14160
    D8        0.00000   0.00000   0.00000   0.00001   0.00001   0.00001
    D9        3.14159   0.00000   0.00000   0.00013   0.00013   3.14171
   D10        0.99822   0.00000   0.00000   0.00030   0.00030   0.99852
   D11       -1.99645   0.00002   0.00000  -0.01503  -0.01503  -2.01149
   D12        2.14337   0.00000   0.00000  -0.00272  -0.00272   2.14065
   D13        0.00000   0.00000   0.00000  -0.00010  -0.00010  -0.00011
   D14        3.14159   0.00000   0.00000  -0.00002  -0.00002   3.14157
   D15        0.00000   0.00000   0.00000   0.00002   0.00002   0.00001
   D16       -3.14159   0.00000   0.00000  -0.00004  -0.00004  -3.14163
   D17       -2.08578   0.00000   0.00000   0.00000   0.00000  -2.08578
   D18        2.08578   0.00000   0.00000  -0.00001  -0.00001   2.08576
   D19       -2.11164   0.00002   0.00000  -0.00005  -0.00005  -2.11168
         Item               Value     Threshold  Converged?
 Maximum Force            0.065541     0.000450     NO 
 RMS     Force            0.024189     0.000300     NO 
 Maximum Displacement     0.121340     0.001800     NO 
 RMS     Displacement     0.042012     0.001200     NO 
 Predicted change in Energy=-3.768922D-02
 GradGradGradGradGradGradGradGradGradGradGradGradGradGradGradGradGradGrad

 Leave Link  103 at Mon Sep  8 11:54:55 2025, MaxMem=    33554432 cpu:         0.3
 (Enter /nexus/posix0/bmm/home/sucerqdl/sw/g09/l9999.exe)
 1\1\GINC-SLURM-ORBIT-CPU1\Force\RBMK\6-31+G\C5H10N2O2\SUCERQDL\08-Sep-
 2025\1\\#P bmk/6-31+g force\\Gaussian input prepared by ASE\\0,1\C\H,1
 ,R2\H,1,R3,2,A3\H,1,R4,2,A4,3,D4,0\C,1,R5,2,A5,3,D5,0\O,5,R6,1,A6,2,D6
 ,0\N,5,R7,1,A7,6,D7,0\H,7,R8,5,A8,1,D8,0\C,7,R9,5,A9,8,D9,0\H,9,R10,7,
 A10,5,D10,0\H,9,R11,7,A11,10,D11,0\C,9,R12,7,A12,10,D12,0\O,12,R13,9,A
 13,7,D13,0\N,12,R14,9,A14,13,D14,0\H,14,R15,12,A15,9,D15,0\C,14,R16,12
 ,A16,15,D16,0\H,16,R17,14,A17,12,D17,0\H,16,R18,14,A18,17,D18,0\H,16,R
 19,14,A19,17,D19,0\\R2=1.09444798\R3=1.0929167\R4=1.09291534\R5=1.6745
 5324\R6=1.24440197\R7=1.42235897\R8=1.01244029\R9=1.53669057\R10=1.098
 85139\R11=1.09885157\R12=1.6328316\R13=1.23662779\R14=1.41739375\R15=1
 .01332515\R16=1.59372095\R17=1.09252317\R18=1.09277832\R19=1.09252315\
 A3=111.43207332\A4=111.43251867\A5=113.72127771\A6=113.45932707\A7=129
 .09515842\A8=121.94885123\A9=121.1463179\A10=107.08635304\A11=107.0864
 1379\A12=119.85884426\A13=119.85672757\A14=117.09795395\A15=114.816094
 33\A16=133.52979212\A17=107.33831245\A18=107.10156297\A19=107.33835898
 \D4=-124.15720357\D5=117.92181289\D6=179.99330948\D7=179.99975272\D8=0
 .00023623\D9=179.99976377\D10=57.19373186\D11=-114.38836993\D12=122.80
 588337\D13=-0.00009761\D14=180.\D15=-0.00010606\D16=-179.99989393\D17=
 -119.50645148\D18=119.50611782\D19=-120.98785172\\Version=ES64L-G09Rev
 D.01\State=1-A\HF=-456.1034485\RMSD=2.973e-09\RMSF=1.134e-02\Dipole=-0
 .473685,-0.8938538,-0.16405\Quadrupole=0.500733,7.7701194,-8.2708524,5
 .3585446,6.0305507,11.3820212\PG=C01 [X(C5H10N2O2)]\\@


 "WHERE SHALL I START, PLEASE YOUR MAJESTY?" HE ASKED.
 "BEGIN AT THE BEGINNING," THE KING SAID GRAVELY,
 "AND GO ON TILL YOU COME TO THE END: THEN STOP." 

                                      -- LEWIS CARROLL
 Job cpu time:       0 days  0 hours  1 minutes 42.0 seconds.
 File lengths (MBytes):  RWF=    132 Int=      0 D2E=      0 Chk=      3 Scr=      2
 Normal termination of Gaussian 09 at Mon Sep  8 11:54:55 2025.
